 Entering Gaussian System, Link 0=g09
 Input=lig_g09inp.com
 Output=lig_g09inp.log
 Initial command:
 /home/deck/software/g09/l1.exe /home/deck/cutinase/qm_study/s85y/ethex/input/resp/Gau-94749.inp -scrdir=/home/deck/cutinase/qm_study/s85y/ethex/input/resp/
 Entering Link 1 = /home/deck/software/g09/l1.exe PID=     94762.
  
 Copyright (c) 1988,1990,1992,1993,1995,1998,2003,2009,2010,
            Gaussian, Inc.  All Rights Reserved.
  
 This is part of the Gaussian(R) 09 program.  It is based on
 the Gaussian(R) 03 system (copyright 2003, Gaussian, Inc.),
 the Gaussian(R) 98 system (copyright 1998, Gaussian, Inc.),
 the Gaussian(R) 94 system (copyright 1995, Gaussian, Inc.),
 the Gaussian 92(TM) system (copyright 1992, Gaussian, Inc.),
 the Gaussian 90(TM) system (copyright 1990, Gaussian, Inc.),
 the Gaussian 88(TM) system (copyright 1988, Gaussian, Inc.),
 the Gaussian 86(TM) system (copyright 1986, Carnegie Mellon
 University), and the Gaussian 82(TM) system (copyright 1983,
 Carnegie Mellon University). Gaussian is a federally registered
 trademark of Gaussian, Inc.
  
 This software contains proprietary and confidential information,
 including trade secrets, belonging to Gaussian, Inc.
  
 This software is provided under written license and may be
 used, copied, transmitted, or stored only in accord with that
 written license.
  
 The following legend is applicable only to US Government
 contracts under FAR:
  
                    RESTRICTED RIGHTS LEGEND
  
 Use, reproduction and disclosure by the US Government is
 subject to restrictions as set forth in subparagraphs (a)
 and (c) of the Commercial Computer Software - Restricted
 Rights clause in FAR 52.227-19.
  
 Gaussian, Inc.
 340 Quinnipiac St., Bldg. 40, Wallingford CT 06492
  
  
 ---------------------------------------------------------------
 Warning -- This program may not be used in any manner that
 competes with the business of Gaussian, Inc. or will provide
 assistance to any competitor of Gaussian, Inc.  The licensee
 of this program is prohibited from giving any competitor of
 Gaussian, Inc. access to this program.  By using this program,
 the user acknowledges that Gaussian, Inc. is engaged in the
 business of creating and licensing software in the field of
 computational chemistry and represents and warrants to the
 licensee that it is not a competitor of Gaussian, Inc. and that
 it will not use this program in any manner prohibited above.
 ---------------------------------------------------------------
  

 Cite this work as:
 Gaussian 09, Revision B.01,
 M. J. Frisch, G. W. Trucks, H. B. Schlegel, G. E. Scuseria, 
 M. A. Robb, J. R. Cheeseman, G. Scalmani, V. Barone, B. Mennucci, 
 G. A. Petersson, H. Nakatsuji, M. Caricato, X. Li, H. P. Hratchian, 
 A. F. Izmaylov, J. Bloino, G. Zheng, J. L. Sonnenberg, M. Hada, 
 M. Ehara, K. Toyota, R. Fukuda, J. Hasegawa, M. Ishida, T. Nakajima, 
 Y. Honda, O. Kitao, H. Nakai, T. Vreven, J. A. Montgomery, Jr., 
 J. E. Peralta, F. Ogliaro, M. Bearpark, J. J. Heyd, E. Brothers, 
 K. N. Kudin, V. N. Staroverov, T. Keith, R. Kobayashi, J. Normand, 
 K. Raghavachari, A. Rendell, J. C. Burant, S. S. Iyengar, J. Tomasi, 
 M. Cossi, N. Rega, J. M. Millam, M. Klene, J. E. Knox, J. B. Cross, 
 V. Bakken, C. Adamo, J. Jaramillo, R. Gomperts, R. E. Stratmann, 
 O. Yazyev, A. J. Austin, R. Cammi, C. Pomelli, J. W. Ochterski, 
 R. L. Martin, K. Morokuma, V. G. Zakrzewski, G. A. Voth, 
 P. Salvador, J. J. Dannenberg, S. Dapprich, A. D. Daniels, 
 O. Farkas, J. B. Foresman, J. V. Ortiz, J. Cioslowski, 
 and D. J. Fox, Gaussian, Inc., Wallingford CT, 2010.
 
 ******************************************
 Gaussian 09:  EM64L-G09RevB.01 12-Aug-2010
                22-Nov-2023 
 ******************************************
 %NProcShared=4
 Will use up to    4 processors via shared memory.
 %LindaWorkers=4
 SetLPE:  input flags=""
 SetLPE:    new flags=" -nodelist '4'"
 Will use up to    1 processors via Linda.
 %Mem=5GB
 %chk=molecule
 ----------------------------------------------------------------------
 #B3LYP/6-31G* SCF=tight Test Pop=MK iop(6/33=2) iop(6/42=6) iop(6/50=1
 )
 ----------------------------------------------------------------------
 1/38=1/1;
 2/12=2,17=6,18=5,40=1/2;
 3/5=1,6=6,7=1,11=2,16=1,25=1,30=1,74=-5/1,2,3;
 4//1;
 5/5=2,32=2,38=5/2;
 6/7=2,8=2,9=2,10=2,15=8,20=1,28=1,33=2,42=6,50=1/1,2;
 99/5=1,9=1/99;


 Symbolic Z-matrix:
 Charge =  0 Multiplicity = 1
 C                     52.497    42.625    31.459 
 C                     53.334    43.461    32.42 
 C                     54.607    43.972    31.737 
 C                     52.82     45.171    33.989 
 C                     51.855    46.336    34.233 
 C                     50.706    45.945    35.161 
 C                     51.923    47.698    32.301 
 C                     52.114    47.358    30.826 
 C                     53.593    47.278    30.429 
 C                     52.243    42.729    29.096 
 C                     53.204    43.514    28.205 
 C                     50.814    42.671    28.548 
 C                     50.786    40.902    26.977 
 C                     49.345    40.55     26.615 
 C                     51.754    40.58     25.835 
 C                     51.659    38.622    24.493 
 C                     51.999    38.621    23.001 
 C                     50.616    37.564    24.856 
 C                     49.197    35.924    23.895 
 C                     47.806    36.398    23.515 
 O                     52.201    43.383    30.371 
 O                     52.134    41.489    31.631 
 O                     52.497    44.561    32.833 
 O                     53.735    44.857    34.715 
 O                     51.277    46.731    32.979 
 O                     52.323    48.733    32.796 
 O                     51.472    46.133    30.547 
 O                     49.814    42.91     29.184 
 O                     50.825    42.314    27.244 
 O                     52.914    40.916    25.788 
 O                     51.099    39.893    24.877 
 O                     50.292    37.24     25.974 
 O                     50.101    37.044    23.724 
 H                     51.989    45.447    31.008 
 H                     53.651    42.879    33.26 
 H                     54.342    44.563    30.886 
 H                     55.201    43.14     31.422 
 H                     55.166    44.569    32.426 
 H                     52.415    47.127    34.687 
 H                     50.14     45.154    34.715 
 H                     50.071    46.792    35.319 
 H                     51.101    45.615    36.099 
 H                     51.679    48.147    30.249 
 H                     54.07     46.498    30.985 
 H                     54.071    48.211    30.643 
 H                     53.671    47.069    29.382 
 H                     52.603    41.723    29.152 
 H                     52.871    44.528    28.128 
 H                     53.229    43.072    27.231 
 H                     54.185    43.492    28.632 
 H                     51.089    40.325    27.826 
 H                     49.04     41.125    25.766 
 H                     48.705    40.77     27.444 
 H                     49.28     39.508    26.381 
 H                     52.577    38.417    25.003 
 H                     51.114    38.822    22.433 
 H                     52.39     37.664    22.725 
 H                     52.73     39.376    22.801 
 H                     49.493    35.115    23.26 
 H                     49.214    35.578    24.907 
 H                     47.81     36.74     22.501 
 H                     47.514    37.2      24.16 
 H                     47.113    35.589    23.616 
 
 Stoichiometry    C20H30O13
 Framework group  C1[X(C20H30O13)]
 Deg. of freedom   183
 Full point group                 C1      NOp   1
 Largest Abelian subgroup         C1      NOp   1
 Largest concise Abelian subgroup C1      NOp   1
                         Standard orientation:                         
 ---------------------------------------------------------------------
 Center     Atomic      Atomic             Coordinates (Angstroms)
 Number     Number       Type             X           Y           Z
 ---------------------------------------------------------------------
      1          6           0       -1.933465   -1.263510    1.107556
      2          6           0       -3.336291   -1.092743    1.678437
      3          6           0       -3.430025    0.175199    2.533817
      4          6           0       -5.520861   -1.311795    0.767542
      5          6           0       -6.312284   -1.124920   -0.531193
      6          6           0       -6.496597   -2.440683   -1.285555
      7          6           0       -5.880538    1.074166   -1.286114
      8          6           0       -4.636795    1.952941   -1.193556
      9          6           0       -4.568517    2.736415    0.122862
     10          6           0       -0.281091    0.333448    0.492346
     11          6           0       -0.357195    1.796108    0.926468
     12          6           0        0.406235    0.134954   -0.861866
     13          6           0        2.730584    0.113968   -0.420111
     14          6           0        3.488211   -0.398959   -1.642542
     15          6           0        3.584953    1.068159    0.419202
     16          6           0        5.887568    0.747194    0.907768
     17          6           0        6.885606    1.903530    0.999806
     18          6           0        6.539124   -0.551254    0.429763
     19          6           0        8.594717   -1.438970   -0.353297
     20          6           0        8.793760   -1.410118   -1.857792
     21          8           0       -1.623633   -0.157079    0.382479
     22          8           0       -1.216444   -2.221374    1.249779
     23          8           0       -4.226605   -1.014122    0.546051
     24          8           0       -5.988161   -1.660251    1.827309
     25          8           0       -5.586428   -0.235040   -1.393673
     26          8           0       -7.008914    1.523863   -1.258006
     27          8           0       -3.488540    1.145432   -1.335223
     28          8           0       -0.026696   -0.533863   -1.771191
     29          8           0        1.572793    0.817292   -0.901161
     30          8           0        3.179418    1.746849    1.333328
     31          8           0        4.851244    1.056228   -0.044611
     32          8           0        6.024880   -1.644603    0.425662
     33          8           0        7.789863   -0.287107    0.002063
     34          1           0       -3.442409    0.599236   -0.529030
     35          1           0       -3.593721   -1.911529    2.317290
     36          1           0       -3.180335    1.026792    1.937032
     37          1           0       -2.747683    0.102763    3.354456
     38          1           0       -4.426731    0.280621    2.906743
     39          1           0       -7.274445   -0.737251   -0.267836
     40          1           0       -5.539027   -2.836135   -1.553195
     41          1           0       -7.070290   -2.266267   -2.172151
     42          1           0       -7.009264   -3.141787   -0.660738
     43          1           0       -4.685568    2.673753   -1.982685
     44          1           0       -4.518575    2.051522    0.943527
     45          1           0       -5.442146    3.346256    0.221022
     46          1           0       -3.697256    3.358411    0.123572
     47          1           0        0.298776   -0.190723    1.222943
     48          1           0       -0.932495    2.349907    0.214183
     49          1           0        0.630470    2.203753    0.981312
     50          1           0       -0.823015    1.859155    1.887827
     51          1           0        2.465899   -0.713225    0.205375
     52          1           0        3.754620    0.426242   -2.269057
     53          1           0        2.866008   -1.076414   -2.189497
     54          1           0        4.375413   -0.906202   -1.325805
     55          1           0        5.498829    0.616116    1.895974
     56          1           0        7.312255    2.084593    0.034696
     57          1           0        7.662139    1.650200    1.690983
     58          1           0        6.381153    2.784394    1.337432
     59          1           0        9.542513   -1.389314    0.141213
     60          1           0        8.108903   -2.343905   -0.054589
     61          1           0        9.279911   -0.498335   -2.136152
     62          1           0        7.842907   -1.469480   -2.344462
     63          1           0        9.398355   -2.241746   -2.154085
 ---------------------------------------------------------------------
 Rotational constants (GHZ):      0.3258466      0.0405670      0.0398387
 Standard basis: 6-31G(d) (6D, 7F)
 There are   555 symmetry adapted basis functions of A   symmetry.
 Integral buffers will be    131072 words long.
 Raffenetti 2 integral format.
 Two-electron integral symmetry is turned on.
   555 basis functions,  1044 primitive gaussians,   555 cartesian basis functions
   127 alpha electrons      127 beta electrons
       nuclear repulsion energy      3635.4926361341 Hartrees.
 NAtoms=   63 NActive=   63 NUniq=   63 SFac= 1.00D+00 NAtFMM=   50 NAOKFM=T Big=T
 One-electron integrals computed using PRISM.
 NBasis=   555 RedAO= T  NBF=   555
 NBsUse=   555 1.00D-06 NBFU=   555
 Harris functional with IExCor=  402 diagonalized for initial guess.
 ExpMin= 1.61D-01 ExpMax= 5.48D+03 ExpMxC= 8.25D+02 IAcc=1 IRadAn=         1 AccDes= 0.00D+00
 HarFok:  IExCor=  402 AccDes= 0.00D+00 IRadAn=         1 IDoV= 1
 ScaDFX=  1.000000  1.000000  1.000000  1.000000
 FoFCou: FMM=F IPFlag=           0 FMFlag=      100000 FMFlg1=        2001
         NFxFlg=           0 DoJE=T BraDBF=F KetDBF=T FulRan=T
         Omega=  0.000000  0.000000  1.000000  0.000000  0.000000 ICntrl=     500 IOpCl=  0
         NMat0=    1 NMatS0=    1 NMatT0=    0 NMatD0=    1 NMtDS0=    0 NMtDT0=    0
         I1Cent=           4 NGrid=           0.
 Petite list used in FoFCou.
 Initial guess orbital symmetries:
       Occupied  (A) (A) (A) (A) (A) (A) (A) (A) (A) (A) (A) (A)
                 (A) (A) (A) (A) (A) (A) (A) (A) (A) (A) (A) (A)
                 (A) (A) (A) (A) (A) (A) (A) (A) (A) (A) (A) (A)
                 (A) (A) (A) (A) (A) (A) (A) (A) (A) (A) (A) (A)
                 (A) (A) (A) (A) (A) (A) (A) (A) (A) (A) (A) (A)
                 (A) (A) (A) (A) (A) (A) (A) (A) (A) (A) (A) (A)
                 (A) (A) (A) (A) (A) (A) (A) (A) (A) (A) (A) (A)
                 (A) (A) (A) (A) (A) (A) (A) (A) (A) (A) (A) (A)
                 (A) (A) (A) (A) (A) (A) (A) (A) (A) (A) (A) (A)
                 (A) (A) (A) (A) (A) (A) (A) (A) (A) (A) (A) (A)
                 (A) (A) (A) (A) (A) (A) (A)
       Virtual   (A) (A) (A) (A) (A) (A) (A) (A) (A) (A) (A) (A)
                 (A) (A) (A) (A) (A) (A) (A) (A) (A) (A) (A) (A)
                 (A) (A) (A) (A) (A) (A) (A) (A) (A) (A) (A) (A)
                 (A) (A) (A) (A) (A) (A) (A) (A) (A) (A) (A) (A)
                 (A) (A) (A) (A) (A) (A) (A) (A) (A) (A) (A) (A)
                 (A) (A) (A) (A) (A) (A) (A) (A) (A) (A) (A) (A)
                 (A) (A) (A) (A) (A) (A) (A) (A) (A) (A) (A) (A)
                 (A) (A) (A) (A) (A) (A) (A) (A) (A) (A) (A) (A)
                 (A) (A) (A) (A) (A) (A) (A) (A) (A) (A) (A) (A)
                 (A) (A) (A) (A) (A) (A) (A) (A) (A) (A) (A) (A)
                 (A) (A) (A) (A) (A) (A) (A) (A) (A) (A) (A) (A)
                 (A) (A) (A) (A) (A) (A) (A) (A) (A) (A) (A) (A)
                 (A) (A) (A) (A) (A) (A) (A) (A) (A) (A) (A) (A)
                 (A) (A) (A) (A) (A) (A) (A) (A) (A) (A) (A) (A)
                 (A) (A) (A) (A) (A) (A) (A) (A) (A) (A) (A) (A)
                 (A) (A) (A) (A) (A) (A) (A) (A) (A) (A) (A) (A)
                 (A) (A) (A) (A) (A) (A) (A) (A) (A) (A) (A) (A)
                 (A) (A) (A) (A) (A) (A) (A) (A) (A) (A) (A) (A)
                 (A) (A) (A) (A) (A) (A) (A) (A) (A) (A) (A) (A)
                 (A) (A) (A) (A) (A) (A) (A) (A) (A) (A) (A) (A)
                 (A) (A) (A) (A) (A) (A) (A) (A) (A) (A) (A) (A)
                 (A) (A) (A) (A) (A) (A) (A) (A) (A) (A) (A) (A)
                 (A) (A) (A) (A) (A) (A) (A) (A) (A) (A) (A) (A)
                 (A) (A) (A) (A) (A) (A) (A) (A) (A) (A) (A) (A)
                 (A) (A) (A) (A) (A) (A) (A) (A) (A) (A) (A) (A)
                 (A) (A) (A) (A) (A) (A) (A) (A) (A) (A) (A) (A)
                 (A) (A) (A) (A) (A) (A) (A) (A) (A) (A) (A) (A)
                 (A) (A) (A) (A) (A) (A) (A) (A) (A) (A) (A) (A)
                 (A) (A) (A) (A) (A) (A) (A) (A) (A) (A) (A) (A)
                 (A) (A) (A) (A) (A) (A) (A) (A) (A) (A) (A) (A)
                 (A) (A) (A) (A) (A) (A) (A) (A) (A) (A) (A) (A)
                 (A) (A) (A) (A) (A) (A) (A) (A) (A) (A) (A) (A)
                 (A) (A) (A) (A) (A) (A) (A) (A) (A) (A) (A) (A)
                 (A) (A) (A) (A) (A) (A) (A) (A) (A) (A) (A) (A)
                 (A) (A) (A) (A) (A) (A) (A) (A) (A) (A) (A) (A)
                 (A) (A) (A) (A) (A) (A) (A) (A)
 The electronic state of the initial guess is 1-A.
 Requested convergence on RMS density matrix=1.00D-08 within 128 cycles.
 Requested convergence on MAX density matrix=1.00D-06.
 Requested convergence on             energy=1.00D-06.
 No special actions if energy rises.
 Integral accuracy reduced to 1.0D-05 until final iterations.
 Initial convergence to 1.0D-05 achieved.  Increase integral accuracy.
 SCF Done:  E(RB3LYP) =  -1758.07507324     A.U. after   15 cycles
             Convg  =    0.3578D-08             -V/T =  2.0082

 **********************************************************************

            Population analysis using the SCF density.

 **********************************************************************

 Orbital symmetries:
 BldTbl:  Degeneracy threshold= 1.00D-02
       Occupied  (A) (A) (A) (A) (A) (A) (A) (A) (A) (A) (A) (A)
                 (A) (A) (A) (A) (A) (A) (A) (A) (A) (A) (A) (A)
                 (A) (A) (A) (A) (A) (A) (A) (A) (A) (A) (A) (A)
                 (A) (A) (A) (A) (A) (A) (A) (A) (A) (A) (A) (A)
                 (A) (A) (A) (A) (A) (A) (A) (A) (A) (A) (A) (A)
                 (A) (A) (A) (A) (A) (A) (A) (A) (A) (A) (A) (A)
                 (A) (A) (A) (A) (A) (A) (A) (A) (A) (A) (A) (A)
                 (A) (A) (A) (A) (A) (A) (A) (A) (A) (A) (A) (A)
                 (A) (A) (A) (A) (A) (A) (A) (A) (A) (A) (A) (A)
                 (A) (A) (A) (A) (A) (A) (A) (A) (A) (A) (A) (A)
                 (A) (A) (A) (A) (A) (A) (A)
       Virtual   (A) (A) (A) (A) (A) (A) (A) (A) (A) (A) (A) (A)
                 (A) (A) (A) (A) (A) (A) (A) (A) (A) (A) (A) (A)
                 (A) (A) (A) (A) (A) (A) (A) (A) (A) (A) (A) (A)
                 (A) (A) (A) (A) (A) (A) (A) (A) (A) (A) (A) (A)
                 (A) (A) (A) (A) (A) (A) (A) (A) (A) (A) (A) (A)
                 (A) (A) (A) (A) (A) (A) (A) (A) (A) (A) (A) (A)
                 (A) (A) (A) (A) (A) (A) (A) (A) (A) (A) (A) (A)
                 (A) (A) (A) (A) (A) (A) (A) (A) (A) (A) (A) (A)
                 (A) (A) (A) (A) (A) (A) (A) (A) (A) (A) (A) (A)
                 (A) (A) (A) (A) (A) (A) (A) (A) (A) (A) (A) (A)
                 (A) (A) (A) (A) (A) (A) (A) (A) (A) (A) (A) (A)
                 (A) (A) (A) (A) (A) (A) (A) (A) (A) (A) (A) (A)
                 (A) (A) (A) (A) (A) (A) (A) (A) (A) (A) (A) (A)
                 (A) (A) (A) (A) (A) (A) (A) (A) (A) (A) (A) (A)
                 (A) (A) (A) (A) (A) (A) (A) (A) (A) (A) (A) (A)
                 (A) (A) (A) (A) (A) (A) (A) (A) (A) (A) (A) (A)
                 (A) (A) (A) (A) (A) (A) (A) (A) (A) (A) (A) (A)
                 (A) (A) (A) (A) (A) (A) (A) (A) (A) (A) (A) (A)
                 (A) (A) (A) (A) (A) (A) (A) (A) (A) (A) (A) (A)
                 (A) (A) (A) (A) (A) (A) (A) (A) (A) (A) (A) (A)
                 (A) (A) (A) (A) (A) (A) (A) (A) (A) (A) (A) (A)
                 (A) (A) (A) (A) (A) (A) (A) (A) (A) (A) (A) (A)
                 (A) (A) (A) (A) (A) (A) (A) (A) (A) (A) (A) (A)
                 (A) (A) (A) (A) (A) (A) (A) (A) (A) (A) (A) (A)
                 (A) (A) (A) (A) (A) (A) (A) (A) (A) (A) (A) (A)
                 (A) (A) (A) (A) (A) (A) (A) (A) (A) (A) (A) (A)
                 (A) (A) (A) (A) (A) (A) (A) (A) (A) (A) (A) (A)
                 (A) (A) (A) (A) (A) (A) (A) (A) (A) (A) (A) (A)
                 (A) (A) (A) (A) (A) (A) (A) (A) (A) (A) (A) (A)
                 (A) (A) (A) (A) (A) (A) (A) (A) (A) (A) (A) (A)
                 (A) (A) (A) (A) (A) (A) (A) (A) (A) (A) (A) (A)
                 (A) (A) (A) (A) (A) (A) (A) (A) (A) (A) (A) (A)
                 (A) (A) (A) (A) (A) (A) (A) (A) (A) (A) (A) (A)
                 (A) (A) (A) (A) (A) (A) (A) (A) (A) (A) (A) (A)
                 (A) (A) (A) (A) (A) (A) (A) (A) (A) (A) (A) (A)
                 (A) (A) (A) (A) (A) (A) (A) (A)
 The electronic state is 1-A.
 Alpha  occ. eigenvalues --  -19.22367 -19.21574 -19.21036 -19.20596 -19.18847
 Alpha  occ. eigenvalues --  -19.18760 -19.17156 -19.16538 -19.16369 -19.16279
 Alpha  occ. eigenvalues --  -19.15653 -19.13959 -19.12537 -10.34319 -10.33998
 Alpha  occ. eigenvalues --  -10.33879 -10.33847 -10.32805 -10.31285 -10.28236
 Alpha  occ. eigenvalues --  -10.27670 -10.27661 -10.27241 -10.26976 -10.25326
 Alpha  occ. eigenvalues --  -10.23963 -10.19827 -10.19026 -10.18911 -10.18909
 Alpha  occ. eigenvalues --  -10.18512 -10.17882 -10.17522  -1.13849  -1.13407
 Alpha  occ. eigenvalues --   -1.12341  -1.12107  -1.10629  -1.10368  -1.04867
 Alpha  occ. eigenvalues --   -1.04385  -1.04305  -1.04039  -1.02886  -1.01845
 Alpha  occ. eigenvalues --   -1.00836  -0.83354  -0.82921  -0.80803  -0.79651
 Alpha  occ. eigenvalues --   -0.78650  -0.77529  -0.76149  -0.70898  -0.69408
 Alpha  occ. eigenvalues --   -0.68604  -0.68046  -0.67289  -0.66295  -0.65457
 Alpha  occ. eigenvalues --   -0.62700  -0.61187  -0.59930  -0.59336  -0.58618
 Alpha  occ. eigenvalues --   -0.57674  -0.55443  -0.55032  -0.53656  -0.52552
 Alpha  occ. eigenvalues --   -0.52363  -0.50682  -0.50174  -0.49996  -0.49192
 Alpha  occ. eigenvalues --   -0.48750  -0.48344  -0.48211  -0.47992  -0.47286
 Alpha  occ. eigenvalues --   -0.47024  -0.46440  -0.46040  -0.45783  -0.45050
 Alpha  occ. eigenvalues --   -0.44811  -0.44035  -0.43331  -0.42826  -0.42619
 Alpha  occ. eigenvalues --   -0.42478  -0.42084  -0.41583  -0.41465  -0.41335
 Alpha  occ. eigenvalues --   -0.41230  -0.40869  -0.40484  -0.40361  -0.40039
 Alpha  occ. eigenvalues --   -0.39822  -0.39611  -0.39522  -0.38820  -0.38596
 Alpha  occ. eigenvalues --   -0.38319  -0.37335  -0.37181  -0.37117  -0.36566
 Alpha  occ. eigenvalues --   -0.36184  -0.35527  -0.35115  -0.33475  -0.32847
 Alpha  occ. eigenvalues --   -0.32646  -0.32313  -0.31985  -0.31946  -0.30646
 Alpha  occ. eigenvalues --   -0.29326  -0.29062  -0.28872  -0.28724  -0.27990
 Alpha  occ. eigenvalues --   -0.27785  -0.24439
 Alpha virt. eigenvalues --   -0.04608  -0.03210  -0.02363  -0.01479  -0.01416
 Alpha virt. eigenvalues --   -0.00771   0.07410   0.08137   0.09132   0.09416
 Alpha virt. eigenvalues --    0.10207   0.10350   0.11172   0.12067   0.12717
 Alpha virt. eigenvalues --    0.12753   0.12866   0.13029   0.13730   0.13944
 Alpha virt. eigenvalues --    0.14347   0.14689   0.14827   0.15080   0.15329
 Alpha virt. eigenvalues --    0.15723   0.16133   0.16216   0.16231   0.16542
 Alpha virt. eigenvalues --    0.16641   0.17083   0.17469   0.17529   0.17981
 Alpha virt. eigenvalues --    0.18352   0.18386   0.18956   0.19139   0.19383
 Alpha virt. eigenvalues --    0.19829   0.19993   0.20610   0.20912   0.20954
 Alpha virt. eigenvalues --    0.21338   0.21576   0.22357   0.23137   0.23458
 Alpha virt. eigenvalues --    0.23842   0.25255   0.25659   0.26195   0.27136
 Alpha virt. eigenvalues --    0.28205   0.29712   0.30093   0.30977   0.31522
 Alpha virt. eigenvalues --    0.32553   0.32989   0.34566   0.35504   0.37316
 Alpha virt. eigenvalues --    0.38732   0.38800   0.40584   0.46842   0.47426
 Alpha virt. eigenvalues --    0.48317   0.48743   0.49758   0.50231   0.50528
 Alpha virt. eigenvalues --    0.50896   0.51450   0.52028   0.52286   0.53044
 Alpha virt. eigenvalues --    0.53592   0.53687   0.54142   0.54343   0.54536
 Alpha virt. eigenvalues --    0.55238   0.55377   0.55651   0.55905   0.56498
 Alpha virt. eigenvalues --    0.56656   0.57462   0.58519   0.59308   0.59658
 Alpha virt. eigenvalues --    0.60048   0.60993   0.61309   0.61987   0.62349
 Alpha virt. eigenvalues --    0.63069   0.63184   0.63352   0.64426   0.64607
 Alpha virt. eigenvalues --    0.65216   0.65591   0.65993   0.66443   0.67117
 Alpha virt. eigenvalues --    0.67986   0.68637   0.69181   0.69908   0.70802
 Alpha virt. eigenvalues --    0.71201   0.72219   0.72429   0.72811   0.73263
 Alpha virt. eigenvalues --    0.74700   0.75514   0.76417   0.77277   0.78003
 Alpha virt. eigenvalues --    0.78454   0.78746   0.79208   0.79881   0.81101
 Alpha virt. eigenvalues --    0.81634   0.82513   0.83040   0.84394   0.85018
 Alpha virt. eigenvalues --    0.85378   0.86112   0.86581   0.86911   0.87111
 Alpha virt. eigenvalues --    0.87592   0.87966   0.88474   0.88612   0.88894
 Alpha virt. eigenvalues --    0.89257   0.89550   0.89754   0.90364   0.90742
 Alpha virt. eigenvalues --    0.90829   0.91077   0.91406   0.91644   0.92531
 Alpha virt. eigenvalues --    0.92942   0.93512   0.93643   0.94180   0.94435
 Alpha virt. eigenvalues --    0.94981   0.95526   0.96081   0.96753   0.97344
 Alpha virt. eigenvalues --    0.97618   0.97800   0.98188   0.99448   1.00134
 Alpha virt. eigenvalues --    1.00600   1.01062   1.02090   1.02984   1.03163
 Alpha virt. eigenvalues --    1.03970   1.05535   1.05980   1.06447   1.07282
 Alpha virt. eigenvalues --    1.07848   1.08935   1.09838   1.10164   1.10766
 Alpha virt. eigenvalues --    1.11074   1.11820   1.12773   1.13720   1.14424
 Alpha virt. eigenvalues --    1.14710   1.15332   1.16339   1.17137   1.18473
 Alpha virt. eigenvalues --    1.19387   1.20253   1.21940   1.22789   1.24476
 Alpha virt. eigenvalues --    1.26351   1.26814   1.27527   1.28907   1.30398
 Alpha virt. eigenvalues --    1.31792   1.32742   1.33658   1.34607   1.35990
 Alpha virt. eigenvalues --    1.37009   1.39109   1.39808   1.41738   1.42102
 Alpha virt. eigenvalues --    1.42533   1.43656   1.44429   1.45170   1.46742
 Alpha virt. eigenvalues --    1.47458   1.48607   1.49957   1.50839   1.53225
 Alpha virt. eigenvalues --    1.55013   1.55271   1.55808   1.57594   1.58051
 Alpha virt. eigenvalues --    1.59134   1.60601   1.61770   1.62546   1.63666
 Alpha virt. eigenvalues --    1.64208   1.64655   1.66453   1.66676   1.66990
 Alpha virt. eigenvalues --    1.67828   1.68232   1.68791   1.69409   1.70159
 Alpha virt. eigenvalues --    1.71156   1.72398   1.73310   1.74258   1.74702
 Alpha virt. eigenvalues --    1.75452   1.75994   1.76627   1.77039   1.77429
 Alpha virt. eigenvalues --    1.77719   1.78141   1.78561   1.78893   1.79835
 Alpha virt. eigenvalues --    1.80246   1.80778   1.81702   1.82014   1.83081
 Alpha virt. eigenvalues --    1.83216   1.83646   1.84395   1.84535   1.85057
 Alpha virt. eigenvalues --    1.86064   1.86853   1.87083   1.87404   1.88348
 Alpha virt. eigenvalues --    1.89256   1.89677   1.90175   1.90894   1.91832
 Alpha virt. eigenvalues --    1.92342   1.92573   1.93183   1.93677   1.94315
 Alpha virt. eigenvalues --    1.95026   1.95440   1.96472   1.96996   1.97589
 Alpha virt. eigenvalues --    1.98795   1.99960   2.00027   2.00708   2.01533
 Alpha virt. eigenvalues --    2.03009   2.03540   2.04237   2.05261   2.06006
 Alpha virt. eigenvalues --    2.06802   2.07791   2.08396   2.09153   2.09288
 Alpha virt. eigenvalues --    2.09905   2.11484   2.13256   2.13440   2.13609
 Alpha virt. eigenvalues --    2.14547   2.16165   2.17271   2.18167   2.18652
 Alpha virt. eigenvalues --    2.19719   2.20823   2.20989   2.22357   2.24289
 Alpha virt. eigenvalues --    2.24868   2.26685   2.27229   2.28133   2.29261
 Alpha virt. eigenvalues --    2.29467   2.29824   2.30291   2.31503   2.32494
 Alpha virt. eigenvalues --    2.32940   2.33093   2.34338   2.35396   2.36319
 Alpha virt. eigenvalues --    2.37012   2.38639   2.38976   2.39273   2.41990
 Alpha virt. eigenvalues --    2.43447   2.44209   2.44689   2.45766   2.47422
 Alpha virt. eigenvalues --    2.49069   2.49243   2.50671   2.52465   2.53775
 Alpha virt. eigenvalues --    2.53965   2.54951   2.55291   2.56293   2.57999
 Alpha virt. eigenvalues --    2.59368   2.60104   2.60858   2.62089   2.64117
 Alpha virt. eigenvalues --    2.66024   2.66845   2.68192   2.70276   2.70558
 Alpha virt. eigenvalues --    2.72017   2.75292   2.76701   2.77017   2.78810
 Alpha virt. eigenvalues --    2.79580   2.81619   2.83768   2.84460   2.86744
 Alpha virt. eigenvalues --    2.87643   2.89380   2.93226   2.94552   2.95990
 Alpha virt. eigenvalues --    2.96589   2.97455   2.99092   2.99592   3.01533
 Alpha virt. eigenvalues --    3.02593   3.03204   3.03996   3.07181   3.10595
 Alpha virt. eigenvalues --    3.12396   3.13669   3.14538   3.15084   3.17994
 Alpha virt. eigenvalues --    3.89997   3.92602   3.95852   3.98275   4.01000
 Alpha virt. eigenvalues --    4.07680   4.12930   4.13911   4.15464   4.16492
 Alpha virt. eigenvalues --    4.17514   4.18197   4.19939   4.21165   4.24227
 Alpha virt. eigenvalues --    4.27055   4.29526   4.31466   4.33375   4.34801
 Alpha virt. eigenvalues --    4.35610   4.36568   4.39220   4.41874   4.45846
 Alpha virt. eigenvalues --    4.51127   4.55764   4.60547   4.61538   4.62942
 Alpha virt. eigenvalues --    4.64943   4.66505   4.67744
          Condensed to atoms (all electrons):
 Mulliken atomic charges:
              1
     1  C    0.614909
     2  C    0.048285
     3  C   -0.501733
     4  C    0.615729
     5  C    0.032773
     6  C   -0.464769
     7  C    0.589998
     8  C    0.031489
     9  C   -0.473465
    10  C    0.026935
    11  C   -0.472106
    12  C    0.596139
    13  C    0.002808
    14  C   -0.442551
    15  C    0.627631
    16  C    0.011417
    17  C   -0.441711
    18  C    0.645227
    19  C   -0.074766
    20  C   -0.456327
    21  O   -0.454070
    22  O   -0.437797
    23  O   -0.463558
    24  O   -0.467772
    25  O   -0.444915
    26  O   -0.458638
    27  O   -0.633947
    28  O   -0.401238
    29  O   -0.465382
    30  O   -0.437744
    31  O   -0.456151
    32  O   -0.472393
    33  O   -0.448426
    34  H    0.438899
    35  H    0.195042
    36  H    0.187684
    37  H    0.169685
    38  H    0.191091
    39  H    0.195683
    40  H    0.180513
    41  H    0.183429
    42  H    0.172407
    43  H    0.173316
    44  H    0.140861
    45  H    0.170912
    46  H    0.168686
    47  H    0.182424
    48  H    0.181285
    49  H    0.200788
    50  H    0.154835
    51  H    0.187664
    52  H    0.167699
    53  H    0.173721
    54  H    0.170005
    55  H    0.186316
    56  H    0.176092
    57  H    0.159194
    58  H    0.170951
    59  H    0.163089
    60  H    0.189005
    61  H    0.165990
    62  H    0.170505
    63  H    0.158351
 Sum of Mulliken atomic charges =   0.00000
 Mulliken charges with hydrogens summed into heavy atoms:
              1
     1  C    0.614909
     2  C    0.243327
     3  C    0.046726
     4  C    0.615729
     5  C    0.228456
     6  C    0.071580
     7  C    0.589998
     8  C    0.204805
     9  C    0.006995
    10  C    0.209359
    11  C    0.064802
    12  C    0.596139
    13  C    0.190471
    14  C    0.068874
    15  C    0.627631
    16  C    0.197734
    17  C    0.064525
    18  C    0.645227
    19  C    0.277328
    20  C    0.038519
    21  O   -0.454070
    22  O   -0.437797
    23  O   -0.463558
    24  O   -0.467772
    25  O   -0.444915
    26  O   -0.458638
    27  O   -0.195048
    28  O   -0.401238
    29  O   -0.465382
    30  O   -0.437744
    31  O   -0.456151
    32  O   -0.472393
    33  O   -0.448426
 Sum of Mulliken charges with hydrogens summed into heavy atoms =   0.00000
 DipInt: DoE/N= T F RetVal/Mat= T F Init=T NMatP=  1 IDeriv=0 Min/MaxMlt=  0  4
 Entering OneElI...
 OneElI was handed   670304354 working-precision words.
 Multipole integrals L=0 to 4 MinM= 0 MaxM= 0.
 Requested accuracy = 0.1000D-12
 PrsmSu:  NPrtUS=   1 ThrOK=F IAlg=1 NPAlg=1 LenDen=           0.
 Prism:   IPart=     0 DynPar=F LinDyn=F Incr=         102.
 PRISM was handed   669364204 working-precision words and 10247 shell-pairs
 IPart=  0 NShTot=       10247 NBatch=          81 AvBLen=       126.5
 PrSmSu:  NxtVal=            103.
 Electronic moments (au):
       -254.00000000          2.82015673          0.15682955          1.16045705
     -22876.43625473      -1918.62189383      -1481.71283579          1.08001024
         -3.13570579          4.74541301     -61711.35975570       -576.25554818
       -348.07444396       3536.80153212      11799.80306024      10402.65495031
       2527.05377064        524.69075667       -303.67542526      -4997.84003907
   -3661247.66255968     -33300.55622616     -20591.21010370     114898.59838213
      15277.47600703        419.88319473      -1336.98572653      13095.84283656
       -701.86497199    -193843.61842783    -130166.41508833     -10465.11727469
     -23459.19361099      -6095.59672730      -1201.34119786
 Electronic spatial extent (au):  <R**2>=          26276.7710
 DipInt: DoE/N= F T RetVal/Mat= T F Init=T NMatP=  1 IDeriv=0 Min/MaxMlt=  0  4
 Nuclear    moments (au):
        254.00000000          0.00000000          0.00000000          0.00000000
      22759.77501988       1773.07173172       1336.55036604          0.00000000
          0.00000000          0.00000000      62645.24014655        591.23760113
        360.33136451      -3560.27269057     -11982.65167080     -10432.97116876
      -2483.46482033       -520.79448884        265.96896223       4962.02489299
    3591530.86263618      26892.18037759      15699.60249479    -114701.28197613
     -15178.46267942       -422.42250285       1332.81623024     -12922.90139861
        636.86311931     180203.70491297     116432.27346194       8526.22837026
      24429.52742159       6199.91488103       1090.53094744
 Total      moments (au):
          0.00000000          2.82015673          0.15682955          1.16045705
       -116.66123485       -145.55016211       -145.16246974          1.08001024
         -3.13570579          4.74541301        933.88039085         14.98205295
         12.25692055        -23.47115845       -182.84861055        -30.31621845
         43.58895030          3.89626783        -37.70646304        -35.81514608
     -69716.79992350      -6408.37584857      -4891.60760891        197.31640600
         99.01332760         -2.53930812         -4.16949629        172.94143796
        -65.00185269     -13639.91351486     -13734.14162639      -1938.88890443
        970.33381060        104.31815373       -110.81025042
 Traceless Quadrup. (au):
         19.13005405         -9.75887321         -9.37118084          1.08001024
         -3.13570579          4.74541301
 Charge=              0.0000 electrons
 Dipole moment (field-independent basis, Debye):
    X=              7.1681    Y=              0.3986    Z=              2.9496  Tot=              7.7615
 Quadrupole moment (field-independent basis, Debye-Ang):
   XX=           -156.9133   YY=           -195.7699   ZZ=           -195.2485
   XY=              1.4527   XZ=             -4.2176   YZ=              6.3827
 Traceless Quadrupole moment (field-independent basis, Debye-Ang):
   XX=             25.7306   YY=            -13.1260   ZZ=            -12.6046
   XY=              1.4527   XZ=             -4.2176   YZ=              6.3827
 Octapole moment (field-independent basis, Debye-Ang**2):
  XXX=            664.7000  YYY=             10.6636  ZZZ=              8.7240  XYY=            -16.7059
  XXY=           -130.1446  XXZ=            -21.5779  XZZ=             31.0249  YZZ=              2.7732
  YYZ=            -26.8380  XYZ=            -25.4918
 Hexadecapole moment (field-independent basis, Debye-Ang**3):
 XXXX=         -26258.6881 YYYY=          -2413.7015 ZZZZ=          -1842.4139 XXXY=             74.3188
 XXXZ=             37.2932 YYYX=             -0.9564 YYYZ=             -1.5704 ZZZX=             65.1380
 ZZZY=            -24.4828 XXYY=          -5137.4451 XXZZ=          -5172.9360 YYZZ=           -730.2785
 XXYZ=            365.4742 YYXZ=             39.2912 ZZXY=            -41.7365
 N-N= 3.635492636134D+03 E-N=-1.138187818185D+04  KE= 1.743806470771D+03
 Entering OneElI...
 OneElI was handed   669686174 working-precision words.
 Calculate electrostatic properties
    NBasis =   555  MinDer = 0  MaxDer = 0
    NGrid  =    63  NMatD  =   1
 Requested accuracy = 0.1000D-12
 PrsmSu:  NPrtUS=   4 ThrOK=T IAlg=1 NPAlg=1 LenDen=           0.
 Prism:   IPart=     0 DynPar=F LinDyn=F Incr=         512.
 PRISM was handed   167030455 working-precision words and  8731 shell-pairs
 PRISM was handed   167030455 working-precision words and  8731 shell-pairs
 PRISM was handed   167030455 working-precision words and  8731 shell-pairs
 PRISM was handed   167030455 working-precision words and  8731 shell-pairs
 IPart=  2 NShTot=      137214 NBatch=        2178 AvBLen=        63.0
 IPart=  1 NShTot=      137655 NBatch=        2185 AvBLen=        63.0
 IPart=  0 NShTot=      138600 NBatch=        2200 AvBLen=        63.0
 IPart=  3 NShTot=      136584 NBatch=        2168 AvBLen=        63.0
 PrSmSu:  NxtVal=           2049.
 --------------------------------------------------------
       Center         ----      EFG at Nuclei      ----
                      3XX-RR        3YY-RR        3ZZ-RR
 --------------------------------------------------------
     1   Atom        0.250358      0.012711     -0.263069
     2   Atom       -0.124949      0.277270     -0.152321
     3   Atom        0.051972     -0.056767      0.004795
     4   Atom       -0.022569     -0.304776      0.327345
     5   Atom        0.108260     -0.014474     -0.093786
     6   Atom        0.063764     -0.064610      0.000846
     7   Atom        0.365923      0.024707     -0.390630
     8   Atom       -0.185571      0.019375      0.166195
     9   Atom        0.053266      0.003784     -0.057050
    10   Atom       -0.347659      0.152040      0.195619
    11   Atom        0.089085     -0.111574      0.022490
    12   Atom       -0.020659     -0.228458      0.249117
    13   Atom       -0.215547      0.058304      0.157243
    14   Atom        0.033022      0.037403     -0.070425
    15   Atom        0.041705     -0.068938      0.027233
    16   Atom       -0.103488      0.117409     -0.013920
    17   Atom       -0.005903     -0.047702      0.053606
    18   Atom       -0.024817      0.318895     -0.294078
    19   Atom        0.021731     -0.160292      0.138561
    20   Atom        0.039344      0.032262     -0.071607
    21   Atom       -0.559216     -0.051415      0.610631
    22   Atom        0.520702     -0.349600     -0.171103
    23   Atom       -1.198822      0.989416      0.209407
    24   Atom        1.081955     -0.768653     -0.313303
    25   Atom        1.086127     -1.332597      0.246470
    26   Atom       -0.296728      1.204226     -0.907498
    27   Atom       -0.144957      0.093407      0.051551
    28   Atom        0.846783     -0.907347      0.060564
    29   Atom       -1.580712      0.132757      1.447955
    30   Atom        1.159425     -0.525578     -0.633847
    31   Atom       -1.489400      1.310312      0.179088
    32   Atom        0.766502     -0.347902     -0.418600
    33   Atom       -0.952572      0.212444      0.740127
    34   Atom        0.191454      0.023401     -0.214854
    35   Atom        0.131210     -0.121790     -0.009420
    36   Atom        0.140226     -0.150540      0.010314
    37   Atom       -0.035733      0.161958     -0.126225
    38   Atom       -0.263337      0.160043      0.103294
    39   Atom       -0.221955      0.094037      0.127918
    40   Atom       -0.230402      0.095741      0.134661
    41   Atom        0.024697      0.148227     -0.172924
    42   Atom        0.054896     -0.050614     -0.004282
    43   Atom        0.157345     -0.055131     -0.102214
    44   Atom        0.169388     -0.042233     -0.127155
    45   Atom       -0.161603      0.002985      0.158618
    46   Atom       -0.162863      0.000060      0.162803
    47   Atom        0.011030      0.050525     -0.061555
    48   Atom        0.026903      0.027002     -0.053905
    49   Atom       -0.247646      0.083591      0.164056
    50   Atom        0.076606      0.158922     -0.235528
    51   Atom        0.116008     -0.116903      0.000895
    52   Atom        0.139764     -0.132472     -0.007292
    53   Atom       -0.001905     -0.031807      0.033712
    54   Atom       -0.174665      0.058007      0.116658
    55   Atom        0.084068      0.158321     -0.242388
    56   Atom        0.086508      0.148766     -0.235274
    57   Atom       -0.095125      0.134060     -0.038935
    58   Atom        0.053077     -0.171443      0.118366
    59   Atom       -0.216188      0.157451      0.058737
    60   Atom        0.064486     -0.188697      0.124211
    61   Atom        0.065172     -0.193525      0.128353
    62   Atom       -0.227509      0.168626      0.058883
    63   Atom        0.009521     -0.134002      0.124481
 --------------------------------------------------------
                        XY            XZ            YZ
 --------------------------------------------------------
     1   Atom       -0.163757     -0.154292     -0.078096
     2   Atom        0.050420     -0.291302     -0.026641
     3   Atom        0.018631     -0.012199     -0.077248
     4   Atom        0.038631      0.093492     -0.156108
     5   Atom       -0.210809      0.098207      0.262531
     6   Atom       -0.022562     -0.012634     -0.085731
     7   Atom        0.105327      0.013371     -0.012599
     8   Atom        0.135827      0.018278     -0.068834
     9   Atom       -0.017315     -0.022762     -0.038884
    10   Atom       -0.223200      0.006379     -0.042538
    11   Atom        0.030414      0.019889     -0.059011
    12   Atom        0.096417     -0.098960      0.229234
    13   Atom        0.217832     -0.218058      0.056651
    14   Atom        0.023409      0.077509     -0.041785
    15   Atom        0.079412      0.061513      0.353478
    16   Atom        0.168809     -0.325795      0.057457
    17   Atom       -0.080677     -0.021153     -0.000796
    18   Atom       -0.031502     -0.110849      0.125574
    19   Atom        0.347188      0.095472     -0.148741
    20   Atom        0.006669      0.010918      0.007121
    21   Atom       -1.155368     -0.088793      0.813810
    22   Atom        0.621970     -0.947040     -0.746031
    23   Atom       -0.264179     -0.754852      0.067600
    24   Atom        0.106674      0.858412     -0.010395
    25   Atom       -0.306248      0.802546      0.634085
    26   Atom        0.813168     -0.004204      0.206013
    27   Atom        1.409768      0.123857      1.008090
    28   Atom        0.610566     -1.107476     -0.080216
    29   Atom        0.005828     -0.749418      0.695412
    30   Atom        0.882056      0.228542      0.279418
    31   Atom        0.393527     -0.363398      0.704805
    32   Atom       -0.712065     -0.769098      0.360775
    33   Atom        0.638523      0.717926     -0.130181
    34   Atom        0.043098     -0.007544      0.281982
    35   Atom       -0.088834      0.055591      0.214598
    36   Atom       -0.090600      0.061088      0.217156
    37   Atom        0.024842     -0.245599      0.022217
    38   Atom        0.046523      0.160682     -0.020616
    39   Atom        0.150985      0.106068     -0.038317
    40   Atom        0.164000      0.107809     -0.051289
    41   Atom        0.045343     -0.222516      0.064674
    42   Atom       -0.158514      0.139369      0.186638
    43   Atom        0.014961     -0.014287      0.240778
    44   Atom        0.015955     -0.020361      0.242906
    45   Atom        0.232862      0.038770     -0.028852
    46   Atom       -0.237471     -0.000069      0.000561
    47   Atom        0.122317     -0.169570      0.167030
    48   Atom        0.141326     -0.175837      0.167464
    49   Atom       -0.171838     -0.023309     -0.012874
    50   Atom        0.012293      0.198027     -0.024276
    51   Atom       -0.092920      0.066483      0.219605
    52   Atom       -0.094772      0.077932      0.221270
    53   Atom       -0.183700     -0.141116     -0.161747
    54   Atom        0.194710     -0.115863      0.064723
    55   Atom       -0.020615      0.156623      0.060419
    56   Atom       -0.040167      0.177205      0.075127
    57   Atom        0.080799     -0.235891      0.079169
    58   Atom        0.190389      0.075540     -0.130477
    59   Atom       -0.018448     -0.199849     -0.020377
    60   Atom       -0.172460      0.066051      0.108850
    61   Atom       -0.195144      0.059432      0.110270
    62   Atom       -0.024909     -0.200616     -0.013199
    63   Atom        0.221919      0.078702     -0.106824
 --------------------------------------------------------


 ---------------------------------------------------------------------------------
              Nuclear Quadrupole in Principal Axis System
 ---------------------------------------------------------------------------------

       Atom             a.u.   MegaHertz   Gauss  10(-4) cm-1        Axes

              Baa    -0.3485   -46.770   -16.689   -15.601  0.3202  0.3366  0.8856
     1 C(13)  Bbb    -0.0036    -0.483    -0.172    -0.161  0.2902  0.8550 -0.4299
              Bcc     0.3521    47.253    16.861    15.762  0.9018 -0.3946 -0.1761
 
              Baa    -0.4306   -57.783   -20.618   -19.274  0.6916 -0.0221  0.7219
     2 C(13)  Bbb     0.1323    17.751     6.334     5.921  0.6702 -0.3530 -0.6529
              Bcc     0.2983    40.031    14.284    13.353  0.2693  0.9354 -0.2294
 
              Baa    -0.1096   -14.708    -5.248    -4.906 -0.0538  0.8302  0.5549
     3 C(13)  Bbb     0.0341     4.581     1.635     1.528  0.7453 -0.3364  0.5756
              Bcc     0.0755    10.126     3.613     3.378  0.6645  0.4445 -0.6006
 
              Baa    -0.3521   -47.243   -16.857   -15.759 -0.1809  0.9528  0.2438
     4 C(13)  Bbb    -0.0287    -3.853    -1.375    -1.285  0.9625  0.2225 -0.1552
              Bcc     0.3808    51.096    18.232    17.044  0.2021 -0.2066  0.9573
 
              Baa    -0.4090   -54.887   -19.585   -18.308 -0.3879 -0.6452  0.6582
     5 C(13)  Bbb     0.1156    15.519     5.538     5.177  0.6685  0.2947  0.6828
              Bcc     0.2934    39.368    14.047    13.132 -0.6345  0.7049  0.3170
 
              Baa    -0.1271   -17.058    -6.087    -5.690  0.1337  0.8172  0.5607
     6 C(13)  Bbb     0.0592     7.942     2.834     2.649 -0.2796 -0.5117  0.8124
              Bcc     0.0679     9.116     3.253     3.041  0.9508 -0.2654  0.1601
 
              Baa    -0.3914   -52.520   -18.741   -17.519 -0.0226  0.0360  0.9991
     7 C(13)  Bbb    -0.0045    -0.610    -0.218    -0.203 -0.2719  0.9615 -0.0408
              Bcc     0.3959    53.130    18.958    17.722  0.9621  0.2726  0.0120
 
              Baa    -0.2586   -34.696   -12.381   -11.573  0.8815 -0.4586 -0.1123
     8 C(13)  Bbb     0.0615     8.249     2.944     2.752  0.4591  0.7770  0.4306
              Bcc     0.1971    26.447     9.437     8.822 -0.1103 -0.4311  0.8955
 
              Baa    -0.0818   -10.982    -3.919    -3.663  0.2037  0.4387  0.8753
     9 C(13)  Bbb     0.0219     2.944     1.051     0.982  0.1406  0.8716 -0.4696
              Bcc     0.0599     8.037     2.868     2.681  0.9689 -0.2187 -0.1159
 
              Baa    -0.4330   -58.101   -20.732   -19.380  0.9339  0.3574  0.0147
    10 C(13)  Bbb     0.1696    22.764     8.123     7.593 -0.2004  0.4886  0.8492
              Bcc     0.2633    35.337    12.609    11.787 -0.2963  0.7959 -0.5279
 
              Baa    -0.1394   -18.702    -6.673    -6.238 -0.1537  0.9221  0.3551
    11 C(13)  Bbb     0.0436     5.849     2.087     1.951 -0.1479 -0.3768  0.9144
              Bcc     0.0958    12.853     4.586     4.287  0.9770  0.0880  0.1943
 
              Baa    -0.3673   -49.294   -17.589   -16.443 -0.3462  0.8598 -0.3753
    12 C(13)  Bbb     0.0170     2.285     0.815     0.762  0.9246  0.3804  0.0185
              Bcc     0.3503    47.009    16.774    15.681 -0.1587  0.3406  0.9267
 
              Baa    -0.4193   -56.265   -20.077   -18.768  0.8333 -0.4224  0.3567
    13 C(13)  Bbb     0.1493    20.029     7.147     6.681  0.2394  0.8573  0.4559
              Bcc     0.2700    36.236    12.930    12.087 -0.4983 -0.2945  0.8155
 
              Baa    -0.1259   -16.898    -6.030    -5.637 -0.4538  0.2814  0.8455
    14 C(13)  Bbb     0.0514     6.898     2.462     2.301  0.0984  0.9589 -0.2662
              Bcc     0.0745     9.999     3.568     3.335  0.8857  0.0376  0.4628
 
              Baa    -0.3785   -50.792   -18.124   -16.942 -0.0476  0.7567 -0.6520
    15 C(13)  Bbb     0.0126     1.692     0.604     0.565  0.9554 -0.1559 -0.2506
              Bcc     0.3659    49.100    17.520    16.378  0.2913  0.6349  0.7156
 
              Baa    -0.4372   -58.671   -20.935   -19.571  0.7396 -0.2881  0.6083
    16 C(13)  Bbb     0.1355    18.181     6.487     6.065 -0.0794  0.8601  0.5039
              Bcc     0.3017    40.490    14.448    13.506  0.6684  0.4210 -0.6132
 
              Baa    -0.1113   -14.932    -5.328    -4.981  0.6163  0.7832  0.0828
    17 C(13)  Bbb     0.0394     5.290     1.888     1.765  0.5030 -0.4724  0.7238
              Bcc     0.0718     9.641     3.440     3.216 -0.6060  0.4044  0.6850
 
              Baa    -0.3515   -47.164   -16.829   -15.732  0.3031 -0.1617  0.9391
    18 C(13)  Bbb     0.0003     0.034     0.012     0.011  0.9421  0.1994 -0.2697
              Bcc     0.3512    47.131    16.817    15.721 -0.1437  0.9665  0.2128
 
              Baa    -0.4785   -64.206   -22.910   -21.417 -0.5831  0.7646  0.2745
    19 C(13)  Bbb     0.1867    25.055     8.940     8.358  0.2784 -0.1294  0.9517
              Bcc     0.2918    39.151    13.970    13.059  0.7632  0.6314 -0.1374
 
              Baa    -0.0731    -9.805    -3.499    -3.271 -0.0929 -0.0613  0.9938
    20 C(13)  Bbb     0.0283     3.792     1.353     1.265 -0.5185  0.8551  0.0043
              Bcc     0.0448     6.013     2.146     2.006  0.8500  0.5148  0.1112
 
              Baa    -1.5853   114.709    40.931    38.263  0.7221  0.6577 -0.2146
    21 O(17)  Bbb     0.1112    -8.045    -2.871    -2.684  0.5671 -0.3850  0.7281
              Bcc     1.4741  -106.663   -38.060   -35.579 -0.3963  0.6474  0.6510
 
              Baa    -1.0473    75.780    27.040    25.278  0.2102  0.6205  0.7555
    22 O(17)  Bbb    -0.5850    42.328    15.104    14.119  0.6693 -0.6546  0.3514
              Bcc     1.6322  -118.108   -42.144   -39.397  0.7127  0.4318 -0.5529
 
              Baa    -1.5454   111.822    39.901    37.300  0.9165  0.0851  0.3910
    23 O(17)  Bbb     0.4845   -35.060   -12.510   -11.695 -0.3502 -0.3020  0.8867
              Bcc     1.0608   -76.761   -27.390   -25.605 -0.1935  0.9495  0.2469
 
              Baa    -0.8078    58.452    20.857    19.497 -0.2625  0.8409  0.4733
    24 O(17)  Bbb    -0.6864    49.668    17.723    16.567 -0.3411 -0.5397  0.7697
              Bcc     1.4942  -108.119   -38.580   -36.065  0.9027  0.0406  0.4285
 
              Baa    -1.6760   121.277    43.275    40.454  0.2114  0.8986 -0.3846
    25 O(17)  Bbb     0.1023    -7.405    -2.642    -2.470 -0.4824  0.4381  0.7585
              Bcc     1.5737  -113.872   -40.632   -37.983  0.8501  0.0252  0.5261
 
              Baa    -0.9469    68.516    24.448    22.854  0.2292 -0.1783  0.9569
    26 O(17)  Bbb    -0.6275    45.408    16.203    15.146  0.8886 -0.3629 -0.2804
              Bcc     1.5744  -113.923   -40.651   -38.001  0.3973  0.9146  0.0752
 
              Baa    -1.6731   121.065    43.199    40.383 -0.6153  0.6990 -0.3644
    27 O(17)  Bbb    -0.1308     9.465     3.377     3.157 -0.5717 -0.0775  0.8168
              Bcc     1.8039  -130.529   -46.576   -43.540  0.5427  0.7109  0.4473
 
              Baa    -1.1887    86.012    30.691    28.691 -0.4306  0.8410 -0.3277
    28 O(17)  Bbb    -0.5537    40.065    14.296    13.364  0.3917  0.5012  0.7716
              Bcc     1.7424  -126.077   -44.988   -42.055  0.8131  0.2039 -0.5452
 
              Baa    -1.7712   128.164    45.732    42.751  0.9652 -0.0923  0.2446
    29 O(17)  Bbb    -0.1138     8.233     2.938     2.746  0.1725  0.9279 -0.3304
              Bcc     1.8850  -136.397   -48.670   -45.497 -0.1965  0.3611  0.9116
 
              Baa    -0.9910    71.706    25.586    23.918 -0.2930  0.8350 -0.4658
    30 O(17)  Bbb    -0.5922    42.848    15.289    14.292 -0.3053  0.3800  0.8732
              Bcc     1.5831  -114.553   -40.875   -38.211  0.9061  0.3980  0.1436
 
              Baa    -1.6657   120.528    43.007    40.204  0.9480 -0.1865  0.2580
    31 O(17)  Bbb     0.0043    -0.314    -0.112    -0.105 -0.3115 -0.3769  0.8723
              Bcc     1.6614  -120.214   -42.896   -40.099  0.0654  0.9073  0.4154
 
              Baa    -0.7977    57.719    20.595    19.253  0.4115 -0.0770  0.9082
    32 O(17)  Bbb    -0.6936    50.188    17.908    16.741  0.3929  0.9141 -0.1005
              Bcc     1.4913  -107.907   -38.504   -35.994  0.8224 -0.3981 -0.4064
 
              Baa    -1.4642   105.949    37.805    35.341  0.8809 -0.3594 -0.3081
    33 O(17)  Bbb     0.4452   -32.214   -11.495   -10.745  0.2795  0.9202 -0.2742
              Bcc     1.0190   -73.735   -26.310   -24.595  0.3821  0.1554  0.9110
 
              Baa    -0.4034  -215.218   -76.795   -71.789  0.0507 -0.5541  0.8309
    34 H(1)   Bbb     0.1688    90.065    32.137    30.042  0.7941 -0.4822 -0.3700
              Bcc     0.2346   125.153    44.658    41.747  0.6056  0.6786  0.4156
 
              Baa    -0.3120  -166.463   -59.398   -55.526  0.2292  0.7736 -0.5908
    35 H(1)   Bbb     0.1460    77.894    27.794    25.983  0.6958  0.2942  0.6552
              Bcc     0.1660    88.569    31.604    29.543  0.6807 -0.5612 -0.4708
 
              Baa    -0.3272  -174.590   -62.298   -58.237  0.2276  0.7997 -0.5557
    36 H(1)   Bbb     0.1609    85.872    30.641    28.644  0.3024  0.4844  0.8209
              Bcc     0.1663    88.718    31.657    29.593  0.9256 -0.3549 -0.1316
 
              Baa    -0.3329  -177.624   -63.381   -59.249  0.6389 -0.0665  0.7664
    37 H(1)   Bbb     0.1611    85.941    30.666    28.667 -0.3751  0.8429  0.3858
              Bcc     0.1718    91.683    32.715    30.582  0.6716  0.5340 -0.5136
 
              Baa    -0.3291  -175.574   -62.649   -58.565  0.9307 -0.1033 -0.3508
    38 H(1)   Bbb     0.1615    86.185    30.753    28.748  0.3389  0.6043  0.7211
              Bcc     0.1675    89.389    31.896    29.817 -0.1375  0.7901 -0.5974
 
              Baa    -0.3114  -166.156   -59.289   -55.424  0.8998 -0.3586 -0.2485
    39 H(1)   Bbb     0.1518    80.969    28.892    27.008  0.1589  0.7999 -0.5788
              Bcc     0.1597    85.187    30.397    28.415  0.4063  0.4813  0.7767
 
              Baa    -0.3293  -175.676   -62.686   -58.599  0.8931 -0.3747 -0.2490
    40 H(1)   Bbb     0.1588    84.738    30.236    28.265  0.4417  0.6256  0.6430
              Bcc     0.1704    90.939    32.449    30.334 -0.0852 -0.6842  0.7243
 
              Baa    -0.3306  -176.390   -62.940   -58.837  0.5385 -0.1627  0.8267
    41 H(1)   Bbb     0.1604    85.586    30.539    28.549 -0.1596  0.9437  0.2896
              Bcc     0.1702    90.804    32.401    30.289  0.8273  0.2879 -0.4823
 
              Baa    -0.3310  -176.591   -63.012   -58.905  0.4799  0.6578 -0.5805
    42 H(1)   Bbb     0.1606    85.689    30.576    28.583  0.0404  0.6444  0.7636
              Bcc     0.1704    90.902    32.436    30.322  0.8764 -0.3899  0.2827
 
              Baa    -0.3215  -171.531   -61.206   -57.216  0.0431 -0.6713  0.7399
    43 H(1)   Bbb     0.1578    84.210    30.048    28.089  0.9637 -0.1673 -0.2079
              Bcc     0.1637    87.321    31.158    29.127  0.2634  0.7221  0.6397
 
              Baa    -0.3326  -177.467   -63.325   -59.197  0.0514 -0.6424  0.7646
    44 H(1)   Bbb     0.1618    86.333    30.806    28.797  0.0986  0.7652  0.6363
              Bcc     0.1708    91.135    32.519    30.399  0.9938 -0.0426 -0.1027
 
              Baa    -0.3311  -176.633   -63.027   -58.919  0.8124 -0.5748 -0.0982
    45 H(1)   Bbb     0.1631    87.016    31.049    29.025  0.2201  0.1464  0.9644
              Bcc     0.1680    89.617    31.978    29.893  0.5400  0.8051 -0.2454
 
              Baa    -0.3325  -177.383   -63.295   -59.169  0.8138  0.5812 -0.0005
    46 H(1)   Bbb     0.1628    86.845    30.988    28.968  0.0422 -0.0582  0.9974
              Bcc     0.1697    90.538    32.306    30.200 -0.5796  0.8117  0.0719
 
              Baa    -0.3156  -168.364   -60.076   -56.160  0.5392 -0.4920  0.6835
    47 H(1)   Bbb     0.1449    77.304    27.584    25.786  0.8422  0.3073 -0.4431
              Bcc     0.1707    91.060    32.492    30.374  0.0080  0.8145  0.5800
 
              Baa    -0.3288  -175.430   -62.598   -58.517  0.5356 -0.5243  0.6620
    48 H(1)   Bbb     0.1585    84.572    30.177    28.210 -0.1389  0.7185  0.6815
              Bcc     0.1703    90.858    32.420    30.307  0.8330  0.4570 -0.3120
 
              Baa    -0.3221  -171.873   -61.328   -57.331  0.9188  0.3909  0.0544
    49 H(1)   Bbb     0.1559    83.159    29.673    27.739 -0.3903  0.8797  0.2717
              Bcc     0.1663    88.714    31.655    29.592  0.0584 -0.2709  0.9608
 
              Baa    -0.3331  -177.726   -63.417   -59.283 -0.4359  0.0552  0.8983
    50 H(1)   Bbb     0.1604    85.587    30.539    28.549 -0.0099  0.9978 -0.0661
              Bcc     0.1727    92.140    32.878    30.734  0.9000  0.0377  0.4343
 
              Baa    -0.3156  -168.381   -60.083   -56.166  0.2558  0.7682 -0.5868
    51 H(1)   Bbb     0.1456    77.711    27.729    25.922  0.9552 -0.1074  0.2758
              Bcc     0.1699    90.670    32.353    30.244 -0.1488  0.6311  0.7613
 
              Baa    -0.3317  -176.988   -63.154   -59.037  0.2517  0.7703 -0.5859
    52 H(1)   Bbb     0.1583    84.475    30.143    28.178 -0.3290  0.6374  0.6968
              Bcc     0.1734    92.513    33.011    30.859  0.9102  0.0174  0.4139
 
              Baa    -0.3284  -175.192   -62.513   -58.438  0.5786  0.6366  0.5099
    53 H(1)   Bbb     0.1581    84.375    30.107    28.144 -0.6560 -0.0083  0.7547
              Bcc     0.1702    90.818    32.406    30.294 -0.4846  0.7712 -0.4128
 
              Baa    -0.3250  -173.417   -61.879   -57.846  0.8332 -0.4722  0.2878
    54 H(1)   Bbb     0.1565    83.487    29.790    27.848 -0.2149  0.2030  0.9553
              Bcc     0.1685    89.930    32.089    29.997  0.5095  0.8578 -0.0677
 
              Baa    -0.3140  -167.526   -59.777   -55.881 -0.3689 -0.1338  0.9198
    55 H(1)   Bbb     0.1465    78.163    27.891    26.072  0.9238 -0.1620  0.3469
              Bcc     0.1675    89.363    31.887    29.808  0.1026  0.9777  0.1833
 
              Baa    -0.3288  -175.456   -62.607   -58.526 -0.4006 -0.1752  0.8993
    56 H(1)   Bbb     0.1582    84.399    30.116    28.152  0.5648  0.7257  0.3929
              Bcc     0.1707    91.057    32.492    30.373  0.7214 -0.6654  0.1918
 
              Baa    -0.3320  -177.130   -63.205   -59.084  0.7250 -0.2356  0.6472
    57 H(1)   Bbb     0.1589    84.803    30.260    28.287  0.4407  0.8809 -0.1729
              Bcc     0.1730    92.327    32.945    30.797 -0.5294  0.4106  0.7424
 
              Baa    -0.3308  -176.503   -62.981   -58.875 -0.4707  0.8229  0.3182
    58 H(1)   Bbb     0.1617    86.299    30.794    28.786  0.8445  0.5247 -0.1075
              Bcc     0.1691    90.204    32.187    30.089  0.2554 -0.2181  0.9419
 
              Baa    -0.3227  -172.164   -61.432   -57.428  0.8833  0.0537  0.4657
    59 H(1)   Bbb     0.1516    80.875    28.858    26.977 -0.3221  0.7913  0.5197
              Bcc     0.1711    91.289    32.574    30.451 -0.3406 -0.6091  0.7162
 
              Baa    -0.3129  -166.962   -59.576   -55.692  0.4391  0.8540 -0.2790
    60 H(1)   Bbb     0.1460    77.913    27.801    25.989  0.6889 -0.5194 -0.5056
              Bcc     0.1669    89.049    31.775    29.703  0.5767 -0.0298  0.8164
 
              Baa    -0.3324  -177.329   -63.275   -59.151  0.4565  0.8501 -0.2624
    61 H(1)   Bbb     0.1624    86.653    30.920    28.904  0.1013  0.2433  0.9646
              Bcc     0.1699    90.677    32.356    30.246  0.8839 -0.4670  0.0249
 
              Baa    -0.3324  -177.341   -63.280   -59.155  0.8877  0.0562  0.4570
    62 H(1)   Bbb     0.1622    86.517    30.871    28.859 -0.4594  0.0412  0.8873
              Bcc     0.1702    90.825    32.408    30.296 -0.0310  0.9976 -0.0624
 
              Baa    -0.3339  -178.143   -63.566   -59.422 -0.5655  0.7765  0.2781
    63 H(1)   Bbb     0.1628    86.873    30.998    28.978  0.0883 -0.2782  0.9565
              Bcc     0.1711    91.271    32.568    30.445  0.8200  0.5654  0.0887
 

 ---------------------------------------------------------------------------------

 No NMR shielding tensors so no spin-rotation constants.
 Leave Link  601 at Wed Nov 22 14:30:51 2023, MaxMem=  671088640 cpu:       1.8
 Merz-Kollman atomic radii used.
 Atom Element Radius
    1     6    1.50
    2     6    1.50
    3     6    1.50
    4     6    1.50
    5     6    1.50
    6     6    1.50
    7     6    1.50
    8     6    1.50
    9     6    1.50
   10     6    1.50
   11     6    1.50
   12     6    1.50
   13     6    1.50
   14     6    1.50
   15     6    1.50
   16     6    1.50
   17     6    1.50
   18     6    1.50
   19     6    1.50
   20     6    1.50
   21     8    1.40
   22     8    1.40
   23     8    1.40
   24     8    1.40
   25     8    1.40
   26     8    1.40
   27     8    1.40
   28     8    1.40
   29     8    1.40
   30     8    1.40
   31     8    1.40
   32     8    1.40
   33     8    1.40
   34     1    1.20
   35     1    1.20
   36     1    1.20
   37     1    1.20
   38     1    1.20
   39     1    1.20
   40     1    1.20
   41     1    1.20
   42     1    1.20
   43     1    1.20
   44     1    1.20
   45     1    1.20
   46     1    1.20
   47     1    1.20
   48     1    1.20
   49     1    1.20
   50     1    1.20
   51     1    1.20
   52     1    1.20
   53     1    1.20
   54     1    1.20
   55     1    1.20
   56     1    1.20
   57     1    1.20
   58     1    1.20
   59     1    1.20
   60     1    1.20
   61     1    1.20
   62     1    1.20
   63     1    1.20
 Generate VDW surfaces: Layer= 4 Dens= 6 Start= 1.400 Inc= 0.200

 **********************************************************************

            Electrostatic Properties Using The SCF Density

 **********************************************************************

       Atomic Center    1 is at  -1.933465 -1.263510  1.107556
       Atomic Center    2 is at  -3.336291 -1.092743  1.678437
       Atomic Center    3 is at  -3.430025  0.175199  2.533817
       Atomic Center    4 is at  -5.520861 -1.311795  0.767542
       Atomic Center    5 is at  -6.312284 -1.124920 -0.531193
       Atomic Center    6 is at  -6.496597 -2.440683 -1.285555
       Atomic Center    7 is at  -5.880538  1.074166 -1.286114
       Atomic Center    8 is at  -4.636795  1.952941 -1.193556
       Atomic Center    9 is at  -4.568517  2.736415  0.122862
       Atomic Center   10 is at  -0.281091  0.333448  0.492346
       Atomic Center   11 is at  -0.357195  1.796108  0.926468
       Atomic Center   12 is at   0.406235  0.134954 -0.861866
       Atomic Center   13 is at   2.730584  0.113968 -0.420111
       Atomic Center   14 is at   3.488211 -0.398959 -1.642542
       Atomic Center   15 is at   3.584953  1.068159  0.419202
       Atomic Center   16 is at   5.887568  0.747194  0.907768
       Atomic Center   17 is at   6.885606  1.903530  0.999806
       Atomic Center   18 is at   6.539124 -0.551254  0.429763
       Atomic Center   19 is at   8.594717 -1.438970 -0.353297
       Atomic Center   20 is at   8.793760 -1.410118 -1.857792
       Atomic Center   21 is at  -1.623633 -0.157079  0.382479
       Atomic Center   22 is at  -1.216444 -2.221374  1.249779
       Atomic Center   23 is at  -4.226605 -1.014122  0.546051
       Atomic Center   24 is at  -5.988161 -1.660251  1.827309
       Atomic Center   25 is at  -5.586428 -0.235040 -1.393673
       Atomic Center   26 is at  -7.008914  1.523863 -1.258006
       Atomic Center   27 is at  -3.488540  1.145432 -1.335223
       Atomic Center   28 is at  -0.026696 -0.533863 -1.771191
       Atomic Center   29 is at   1.572793  0.817292 -0.901161
       Atomic Center   30 is at   3.179418  1.746849  1.333328
       Atomic Center   31 is at   4.851244  1.056228 -0.044611
       Atomic Center   32 is at   6.024880 -1.644603  0.425662
       Atomic Center   33 is at   7.789863 -0.287107  0.002063
       Atomic Center   34 is at  -3.442409  0.599236 -0.529030
       Atomic Center   35 is at  -3.593721 -1.911529  2.317290
       Atomic Center   36 is at  -3.180335  1.026792  1.937032
       Atomic Center   37 is at  -2.747683  0.102763  3.354456
       Atomic Center   38 is at  -4.426731  0.280621  2.906743
       Atomic Center   39 is at  -7.274445 -0.737251 -0.267836
       Atomic Center   40 is at  -5.539027 -2.836135 -1.553195
       Atomic Center   41 is at  -7.070290 -2.266267 -2.172151
       Atomic Center   42 is at  -7.009264 -3.141787 -0.660738
       Atomic Center   43 is at  -4.685568  2.673753 -1.982685
       Atomic Center   44 is at  -4.518575  2.051522  0.943527
       Atomic Center   45 is at  -5.442146  3.346256  0.221022
       Atomic Center   46 is at  -3.697256  3.358411  0.123572
       Atomic Center   47 is at   0.298776 -0.190723  1.222943
       Atomic Center   48 is at  -0.932495  2.349907  0.214183
       Atomic Center   49 is at   0.630470  2.203753  0.981312
       Atomic Center   50 is at  -0.823015  1.859155  1.887827
       Atomic Center   51 is at   2.465899 -0.713225  0.205375
       Atomic Center   52 is at   3.754620  0.426242 -2.269057
       Atomic Center   53 is at   2.866008 -1.076414 -2.189497
       Atomic Center   54 is at   4.375413 -0.906202 -1.325805
       Atomic Center   55 is at   5.498829  0.616116  1.895974
       Atomic Center   56 is at   7.312255  2.084593  0.034696
       Atomic Center   57 is at   7.662139  1.650200  1.690983
       Atomic Center   58 is at   6.381153  2.784394  1.337432
       Atomic Center   59 is at   9.542513 -1.389314  0.141213
       Atomic Center   60 is at   8.108903 -2.343905 -0.054589
       Atomic Center   61 is at   9.279911 -0.498335 -2.136152
       Atomic Center   62 is at   7.842907 -1.469480 -2.344462
       Atomic Center   63 is at   9.398355 -2.241746 -2.154085
      ESP Fit Center   64 is at  -1.523776 -1.263510  3.167205
      ESP Fit Center   65 is at  -1.728621 -1.618312  3.167205
      ESP Fit Center   66 is at  -1.129830 -1.263510  3.047703
      ESP Fit Center   67 is at  -1.237497 -0.861693  3.047703
      ESP Fit Center   68 is at  -0.845552 -0.842051  2.853643
      ESP Fit Center   69 is at  -1.071266 -0.477511  2.853643
      ESP Fit Center   70 is at  -0.508691 -0.845159  2.592481
      ESP Fit Center   71 is at  -0.684268 -0.460700  2.592481
      ESP Fit Center   72 is at  -0.961047 -0.141279  2.592481
      ESP Fit Center   73 is at  -3.022251 -2.869349  0.303921
      ESP Fit Center   74 is at  -2.925355 -2.700511 -0.059141
      ESP Fit Center   75 is at  -2.552636 -2.896129 -0.059141
      ESP Fit Center   76 is at  -2.905884 -2.385741 -0.377368
      ESP Fit Center   77 is at  -2.550325 -2.614245 -0.377368
      ESP Fit Center   78 is at  -2.925412 -1.877697 -0.638530
      ESP Fit Center   79 is at  -2.636558 -2.194555 -0.638530
      ESP Fit Center   80 is at  -2.252747 -2.385670 -0.638530
      ESP Fit Center   81 is at  -1.825816 -2.425231 -0.638530
      ESP Fit Center   82 is at  -2.737101 -1.263510 -0.832591
      ESP Fit Center   83 is at  -2.629434 -1.665328 -0.832591
      ESP Fit Center   84 is at  -2.335283 -1.959479 -0.832591
      ESP Fit Center   85 is at  -1.933465 -2.067146 -0.832591
      ESP Fit Center   86 is at  -1.531648 -1.959479 -0.832591
      ESP Fit Center   87 is at  -2.138310 -1.618312 -0.952093
      ESP Fit Center   88 is at  -1.728621 -1.618312 -0.952093
      ESP Fit Center   89 is at  -2.248378 -1.514203  3.424523
      ESP Fit Center   90 is at  -2.087093 -1.895554  3.163361
      ESP Fit Center   91 is at  -3.024403 -3.128641  1.268747
      ESP Fit Center   92 is at  -3.650172 -3.007332  0.874802
      ESP Fit Center   93 is at  -3.231254 -3.030045  0.874802
      ESP Fit Center   94 is at  -3.831842  0.871168  4.473964
      ESP Fit Center   95 is at  -3.749306  1.297359  4.279903
      ESP Fit Center   96 is at  -4.133117 -0.755845  4.279903
      ESP Fit Center   97 is at  -3.749306 -0.946960  4.279903
      ESP Fit Center   98 is at  -3.218698  1.645009  4.018741
      ESP Fit Center   99 is at  -3.641351  1.645009  4.018741
      ESP Fit Center  100 is at  -4.046884  1.525934  4.018741
      ESP Fit Center  101 is at  -4.046884 -1.175535  4.018741
      ESP Fit Center  102 is at  -3.641351 -1.294611  4.018741
      ESP Fit Center  103 is at  -2.810854  1.807818  3.700514
      ESP Fit Center  104 is at  -3.219557  1.908554  3.700514
      ESP Fit Center  105 is at  -3.640492  1.908554  3.700514
      ESP Fit Center  106 is at  -4.049195  1.807818  3.700514
      ESP Fit Center  107 is at  -4.421915 -1.261802  3.700514
      ESP Fit Center  108 is at  -2.521243  1.889342  3.337452
      ESP Fit Center  109 is at  -2.910980  2.044628  3.337452
      ESP Fit Center  110 is at  -3.324987  2.112501  3.337452
      ESP Fit Center  111 is at  -3.743905  2.089788  3.337452
      ESP Fit Center  112 is at  -4.148147  1.977551  3.337452
      ESP Fit Center  113 is at  -3.946281  2.169098  2.943506
      ESP Fit Center  114 is at  -4.337082  2.024362  2.943506
      ESP Fit Center  115 is at  -6.140031  0.320824  1.934239
      ESP Fit Center  116 is at  -5.415823  0.625507  1.571177
      ESP Fit Center  117 is at  -5.834741  0.602794  1.571177
      ESP Fit Center  118 is at  -6.238983  0.490556  1.571177
      ESP Fit Center  119 is at  -6.609646  0.294043  1.571177
      ESP Fit Center  120 is at  -5.625180  0.745211  1.177232
      ESP Fit Center  121 is at  -6.037117  0.682104  1.177232
      ESP Fit Center  122 is at  -6.427918  0.537367  1.177232
      ESP Fit Center  123 is at  -6.781584  0.316926  1.177232
      ESP Fit Center  124 is at  -5.208972 -3.347693  1.177232
      ESP Fit Center  125 is at  -4.805534 -3.243235  1.177232
      ESP Fit Center  126 is at  -4.431380 -3.059704  1.177232
      ESP Fit Center  127 is at  -6.324496  0.628352  0.767542
      ESP Fit Center  128 is at  -5.930550 -3.371444  0.767542
      ESP Fit Center  129 is at  -5.520861 -3.411795  0.767542
      ESP Fit Center  130 is at  -5.111171 -3.371444  0.767542
      ESP Fit Center  131 is at  -4.717225 -3.251942  0.767542
      ESP Fit Center  132 is at  -4.354163 -3.057881  0.767542
      ESP Fit Center  133 is at  -5.208972 -3.347693  0.357852
      ESP Fit Center  134 is at  -4.805534 -3.243235  0.357852
      ESP Fit Center  135 is at  -4.431380 -3.059704  0.357852
      ESP Fit Center  136 is at  -4.612079 -3.025938 -0.036093
      ESP Fit Center  137 is at  -7.561482 -0.322109 -2.016117
      ESP Fit Center  138 is at  -7.737059 -0.706569 -2.016117
      ESP Fit Center  139 is at  -5.524178 -3.562914  0.199369
      ESP Fit Center  140 is at  -5.504707 -3.877684 -0.118857
      ESP Fit Center  141 is at  -8.425371 -2.230917 -0.481920
      ESP Fit Center  142 is at  -5.587816 -4.154827 -0.481920
      ESP Fit Center  143 is at  -8.461789 -1.824100 -0.875865
      ESP Fit Center  144 is at  -8.545678 -2.232312 -0.875865
      ESP Fit Center  145 is at  -5.781270 -4.372124 -0.875865
      ESP Fit Center  146 is at  -8.436744 -1.637048 -1.285555
      ESP Fit Center  147 is at  -8.556246 -2.030994 -1.285555
      ESP Fit Center  148 is at  -8.596597 -2.440683 -1.285555
      ESP Fit Center  149 is at  -8.556246 -2.850373 -1.285555
      ESP Fit Center  150 is at  -6.086907 -4.500332 -1.285555
      ESP Fit Center  151 is at  -6.600916 -4.497689 -1.695244
      ESP Fit Center  152 is at  -6.184709 -4.476581 -1.695244
      ESP Fit Center  153 is at  -7.905135 -3.774921 -2.089190
      ESP Fit Center  154 is at  -7.585382 -4.046522 -2.089190
      ESP Fit Center  155 is at  -7.214719 -4.243035 -2.089190
      ESP Fit Center  156 is at  -6.810478 -4.355272 -2.089190
      ESP Fit Center  157 is at  -6.391559 -4.377985 -2.089190
      ESP Fit Center  158 is at  -7.488487 -3.877684 -2.452252
      ESP Fit Center  159 is at  -7.115767 -4.073302 -2.452252
      ESP Fit Center  160 is at  -6.707064 -4.174039 -2.452252
      ESP Fit Center  161 is at  -6.286129 -4.174039 -2.452252
      ESP Fit Center  162 is at  -5.247399 -1.637873 -2.770479
      ESP Fit Center  163 is at  -6.707923 -3.910493 -2.770479
      ESP Fit Center  164 is at  -6.285270 -3.910493 -2.770479
      ESP Fit Center  165 is at  -5.408684 -2.019224 -3.031641
      ESP Fit Center  166 is at  -5.634397 -1.654684 -3.031641
      ESP Fit Center  167 is at  -6.388947 -3.602404 -3.031641
      ESP Fit Center  168 is at  -5.692962 -2.440683 -3.225702
      ESP Fit Center  169 is at  -5.800628 -2.842501 -3.225702
      ESP Fit Center  170 is at  -5.880538  1.074166  0.813886
      ESP Fit Center  171 is at  -6.085382  1.428968  0.773535
      ESP Fit Center  172 is at  -6.290227  1.074166  0.773535
      ESP Fit Center  173 is at  -6.085382  0.719365  0.773535
      ESP Fit Center  174 is at  -6.576506  1.475984  0.654033
      ESP Fit Center  175 is at  -6.684173  1.074166  0.654033
      ESP Fit Center  176 is at  -6.576506  0.672349  0.654033
      ESP Fit Center  177 is at  -7.129735  0.271356 -2.771038
      ESP Fit Center  178 is at  -6.199819  2.196326 -3.032200
      ESP Fit Center  179 is at  -6.872484  0.459979 -3.032200
      ESP Fit Center  180 is at  -4.792625  0.652707 -3.032200
      ESP Fit Center  181 is at  -5.076902  1.074166 -3.226261
      ESP Fit Center  182 is at  -5.184569  1.475984 -3.226261
      ESP Fit Center  183 is at  -5.478720  1.770135 -3.226261
      ESP Fit Center  184 is at  -5.880538  1.877802 -3.226261
      ESP Fit Center  185 is at  -6.282355  1.770135 -3.226261
      ESP Fit Center  186 is at  -6.576506  1.475984 -3.226261
      ESP Fit Center  187 is at  -6.684173  1.074166 -3.226261
      ESP Fit Center  188 is at  -6.576506  0.672349 -3.226261
      ESP Fit Center  189 is at  -6.282355  0.378198 -3.226261
      ESP Fit Center  190 is at  -5.184569  0.672349 -3.226261
      ESP Fit Center  191 is at  -5.470848  1.074166 -3.345763
      ESP Fit Center  192 is at  -5.675693  1.428968 -3.345763
      ESP Fit Center  193 is at  -6.085382  1.428968 -3.345763
      ESP Fit Center  194 is at  -6.290227  1.074166 -3.345763
      ESP Fit Center  195 is at  -6.085382  0.719365 -3.345763
      ESP Fit Center  196 is at  -5.675693  0.719365 -3.345763
      ESP Fit Center  197 is at  -5.880538  1.074166 -3.386114
      ESP Fit Center  198 is at  -2.946311  3.129553 -1.603245
      ESP Fit Center  199 is at  -3.217765  3.445760 -1.603245
      ESP Fit Center  200 is at  -4.636795  1.149306 -3.133703
      ESP Fit Center  201 is at  -4.431951  1.598139 -3.253205
      ESP Fit Center  202 is at  -3.872548  3.138233  2.063009
      ESP Fit Center  203 is at  -4.166699  3.432384  2.063009
      ESP Fit Center  204 is at  -4.568517  3.540051  2.063009
      ESP Fit Center  205 is at  -4.970335  3.432384  2.063009
      ESP Fit Center  206 is at  -5.264485  3.138233  2.063009
      ESP Fit Center  207 is at  -3.480604  3.157875  1.868948
      ESP Fit Center  208 is at  -3.706317  3.522414  1.868948
      ESP Fit Center  209 is at  -4.048475  3.780800  1.868948
      ESP Fit Center  210 is at  -4.460868  3.898136  1.868948
      ESP Fit Center  211 is at  -4.887799  3.858575  1.868948
      ESP Fit Center  212 is at  -5.271609  3.667460  1.868948
      ESP Fit Center  213 is at  -5.715349  2.950796  1.868948
      ESP Fit Center  214 is at  -3.083593  2.736415  1.607786
      ESP Fit Center  215 is at  -4.357190  4.206225  1.607786
      ESP Fit Center  216 is at  -4.779844  4.206225  1.607786
      ESP Fit Center  217 is at  -4.358049  4.469771  1.289560
      ESP Fit Center  218 is at  -4.778984  4.469771  1.289560
      ESP Fit Center  219 is at  -6.263865  2.318550  1.289560
      ESP Fit Center  220 is at  -4.463479  4.673717  0.926497
      ESP Fit Center  221 is at  -6.407103  2.116924  0.926497
      ESP Fit Center  222 is at  -6.230946  1.736165  0.926497
      ESP Fit Center  223 is at  -2.675786  1.924181  0.532552
      ESP Fit Center  224 is at  -4.568517  4.836415  0.122862
      ESP Fit Center  225 is at  -4.672836  4.793421 -0.286828
      ESP Fit Center  226 is at  -4.463479  4.673717 -0.680773
      ESP Fit Center  227 is at  -4.882398  4.651004 -0.680773
      ESP Fit Center  228 is at  -4.358049  4.469771 -1.043835
      ESP Fit Center  229 is at  -4.778984  4.469771 -1.043835
      ESP Fit Center  230 is at  -4.357190  4.206225 -1.362062
      ESP Fit Center  231 is at   0.809503  1.796108  2.672554
      ESP Fit Center  232 is at   0.730718  2.217568  2.672554
      ESP Fit Center  233 is at   0.505005  2.582107  2.672554
      ESP Fit Center  234 is at   0.505005  1.010109  2.672554
      ESP Fit Center  235 is at   0.730718  1.374648  2.672554
      ESP Fit Center  236 is at   0.259665  3.146843  2.411392
      ESP Fit Center  237 is at   0.892003  0.993297  2.411392
      ESP Fit Center  238 is at   1.067579  1.377757  2.411392
      ESP Fit Center  239 is at   0.261976  3.428727  2.093166
      ESP Fit Center  240 is at  -0.146728  3.529463  2.093166
      ESP Fit Center  241 is at  -0.567662  3.529463  2.093166
      ESP Fit Center  242 is at   1.188888  0.984661  2.093166
      ESP Fit Center  243 is at   0.161849  3.665537  1.730103
      ESP Fit Center  244 is at  -0.252158  3.733410  1.730103
      ESP Fit Center  245 is at  -0.671076  3.710697  1.730103
      ESP Fit Center  246 is at  -1.075317  3.598459  1.730103
      ESP Fit Center  247 is at  -0.045307  3.832006  1.336158
      ESP Fit Center  248 is at  -0.461514  3.853114  1.336158
      ESP Fit Center  249 is at  -0.873451  3.790007  1.336158
      ESP Fit Center  250 is at  -1.264252  3.645270  1.336158
      ESP Fit Center  251 is at  -1.617919  3.424829  1.336158
      ESP Fit Center  252 is at  -1.919970  3.137707  1.336158
      ESP Fit Center  253 is at  -2.158042  2.795660  1.336158
      ESP Fit Center  254 is at  -2.322387  2.412691  1.336158
      ESP Fit Center  255 is at   0.052495  3.855757  0.926468
      ESP Fit Center  256 is at  -0.357195  3.896108  0.926468
      ESP Fit Center  257 is at  -0.045307  3.832006  0.516778
      ESP Fit Center  258 is at   0.161849  3.665537  0.122833
      ESP Fit Center  259 is at   0.615224  2.918339 -0.558456
      ESP Fit Center  260 is at   0.505005  2.582107 -0.819618
      ESP Fit Center  261 is at   0.616703 -1.598401  0.304831
      ESP Fit Center  262 is at   0.511273 -1.802348 -0.058231
      ESP Fit Center  263 is at   0.925280 -1.734475 -0.058231
[...]
      ESP Fit Center **** is at   6.913977 -3.642819 -2.761218
      ESP Fit Center **** is at   6.715276  0.483635 -3.165311
      ESP Fit Center **** is at   6.366024  0.234934 -3.165311
      ESP Fit Center **** is at   6.070151 -0.075369 -3.165311
      ESP Fit Center **** is at   5.678999 -2.104860 -3.165311
      ESP Fit Center **** is at   5.838350 -2.502901 -3.165311
      ESP Fit Center **** is at   6.070151 -2.863590 -3.165311
      ESP Fit Center **** is at   6.366024 -3.173893 -3.165311
      ESP Fit Center **** is at   6.715276 -3.422594 -3.165311
      ESP Fit Center **** is at   7.105283 -3.600704 -3.165311
      ESP Fit Center **** is at   6.927565  0.396572 -3.544462
      ESP Fit Center **** is at   6.570669  0.174117 -3.544462
      ESP Fit Center **** is at   6.265858 -0.115627 -3.544462
      ESP Fit Center **** is at   6.025612 -0.460798 -3.544462
      ESP Fit Center **** is at   5.859766 -0.847265 -3.544462
      ESP Fit Center **** is at   5.775110 -1.259205 -3.544462
      ESP Fit Center **** is at   5.775110 -1.679754 -3.544462
      ESP Fit Center **** is at   5.859766 -2.091694 -3.544462
      ESP Fit Center **** is at   6.025612 -2.478161 -3.544462
      ESP Fit Center **** is at   6.265858 -2.823332 -3.544462
      ESP Fit Center **** is at   6.570669 -3.113076 -3.544462
      ESP Fit Center **** is at   6.927565 -3.335531 -3.544462
      ESP Fit Center **** is at   7.321936 -3.481590 -3.544462
      ESP Fit Center **** is at   7.315617  0.291791 -3.887153
      ESP Fit Center **** is at   6.923654  0.122714 -3.887153
      ESP Fit Center **** is at   6.581247 -0.132198 -3.887153
      ESP Fit Center **** is at   6.306857 -0.459204 -3.887153
      ESP Fit Center **** is at   6.115276 -0.840673 -3.887153
      ESP Fit Center **** is at   6.016832 -1.256042 -3.887153
      ESP Fit Center **** is at   6.016832 -1.682917 -3.887153
      ESP Fit Center **** is at   6.115276 -2.098286 -3.887153
      ESP Fit Center **** is at   6.306857 -2.479755 -3.887153
      ESP Fit Center **** is at   6.581247 -2.806761 -3.887153
      ESP Fit Center **** is at   6.923654 -3.061673 -3.887153
      ESP Fit Center **** is at   7.315617 -3.230750 -3.887153
      ESP Fit Center **** is at   7.326291 -0.015863 -4.182969
      ESP Fit Center **** is at   6.953268 -0.209148 -4.182969
      ESP Fit Center **** is at   6.646225 -0.495906 -4.182969
      ESP Fit Center **** is at   6.427934 -0.854870 -4.182969
      ESP Fit Center **** is at   6.314585 -1.259417 -4.182969
      ESP Fit Center **** is at   6.314585 -1.679543 -4.182969
      ESP Fit Center **** is at   6.427934 -2.084089 -4.182969
      ESP Fit Center **** is at   6.646225 -2.443053 -4.182969
      ESP Fit Center **** is at   6.953268 -2.729811 -4.182969
      ESP Fit Center **** is at   7.326291 -2.923096 -4.182969
      ESP Fit Center **** is at   7.737630 -3.008573 -4.182969
      ESP Fit Center **** is at   7.634529 -0.287710 -4.422923
      ESP Fit Center **** is at   7.242907 -0.430249 -4.422923
      ESP Fit Center **** is at   6.923654 -0.698134 -4.422923
      ESP Fit Center **** is at   6.715276 -1.059055 -4.422923
      ESP Fit Center **** is at   6.642907 -1.469480 -4.422923
      ESP Fit Center **** is at   6.715276 -1.879904 -4.422923
      ESP Fit Center **** is at   6.923654 -2.240825 -4.422923
      ESP Fit Center **** is at   7.242907 -2.508710 -4.422923
      ESP Fit Center **** is at   7.634529 -2.651249 -4.422923
      ESP Fit Center **** is at   7.842907 -0.648631 -4.599725
      ESP Fit Center **** is at   7.432483 -0.758604 -4.599725
      ESP Fit Center **** is at   7.132031 -1.059055 -4.599725
      ESP Fit Center **** is at   7.022059 -1.469480 -4.599725
      ESP Fit Center **** is at   7.132031 -1.879904 -4.599725
      ESP Fit Center **** is at   7.432483 -2.180355 -4.599725
      ESP Fit Center **** is at   7.842907 -2.290328 -4.599725
      ESP Fit Center **** is at   7.634529 -1.108559 -4.708001
      ESP Fit Center **** is at   7.426151 -1.469480 -4.708001
      ESP Fit Center **** is at   7.634529 -1.830401 -4.708001
      ESP Fit Center **** is at   7.842907 -1.469480 -4.744462
      ESP Fit Center **** is at   9.293083 -4.317540 -0.954085
      ESP Fit Center **** is at   9.713092 -4.296239 -0.954085
      ESP Fit Center **** is at  10.120215 -4.190828 -0.954085
      ESP Fit Center **** is at  10.497786 -4.005620 -0.954085
      ESP Fit Center **** is at  10.830346 -3.748200 -0.954085
      ESP Fit Center **** is at  11.104280 -3.429105 -0.954085
      ESP Fit Center **** is at  11.308373 -3.061400 -0.954085
      ESP Fit Center **** is at  11.434270 -2.660137 -0.954085
      ESP Fit Center **** is at  11.653617 -2.241746 -1.333236
      ESP Fit Center **** is at   8.660731 -4.372971 -1.333236
      ESP Fit Center **** is at   9.077398 -4.474053 -1.333236
      ESP Fit Center **** is at   9.505665 -4.494454 -1.333236
      ESP Fit Center **** is at   9.930053 -4.433436 -1.333236
      ESP Fit Center **** is at  10.335225 -4.293205 -1.333236
      ESP Fit Center **** is at  10.706535 -4.078829 -1.333236
      ESP Fit Center **** is at  11.030565 -3.798055 -1.333236
      ESP Fit Center **** is at  11.295602 -3.461033 -1.333236
      ESP Fit Center **** is at  11.492068 -3.079943 -1.333236
      ESP Fit Center **** is at  11.612862 -2.668557 -1.333236
      ESP Fit Center **** is at  11.761894 -2.241746 -1.737329
      ESP Fit Center **** is at   8.469425 -4.415086 -1.737329
      ESP Fit Center **** is at   8.872418 -4.546026 -1.737329
      ESP Fit Center **** is at   9.292315 -4.602905 -1.737329
      ESP Fit Center **** is at   9.715620 -4.583894 -1.737329
      ESP Fit Center **** is at  10.128729 -4.489605 -1.737329
      ESP Fit Center **** is at  10.518362 -4.323068 -1.737329
      ESP Fit Center **** is at  10.871997 -4.089635 -1.737329
      ESP Fit Center **** is at  11.178268 -3.796810 -1.737329
      ESP Fit Center **** is at  11.427332 -3.454004 -1.737329
      ESP Fit Center **** is at  11.611182 -3.072234 -1.737329
      ESP Fit Center **** is at  11.723911 -2.663772 -1.737329
      ESP Fit Center **** is at  11.798355 -2.241746 -2.154085
      ESP Fit Center **** is at  11.761894 -1.824991 -2.154085
      ESP Fit Center **** is at   8.577507 -4.497009 -2.154085
      ESP Fit Center **** is at   8.981599 -4.605285 -2.154085
      ESP Fit Center **** is at   9.398355 -4.641746 -2.154085
      ESP Fit Center **** is at   9.815111 -4.605285 -2.154085
      ESP Fit Center **** is at  10.219203 -4.497009 -2.154085
      ESP Fit Center **** is at  10.598355 -4.320207 -2.154085
      ESP Fit Center **** is at  10.941045 -4.080253 -2.154085
      ESP Fit Center **** is at  11.236862 -3.784437 -2.154085
      ESP Fit Center **** is at  11.476816 -3.441746 -2.154085
      ESP Fit Center **** is at  11.653617 -3.062595 -2.154085
      ESP Fit Center **** is at  11.761894 -2.658502 -2.154085
      ESP Fit Center **** is at  11.761894 -2.241746 -2.570840
      ESP Fit Center **** is at  11.723911 -1.819720 -2.570840
      ESP Fit Center **** is at   8.469425 -4.415086 -2.570840
      ESP Fit Center **** is at   8.872418 -4.546026 -2.570840
      ESP Fit Center **** is at   9.292315 -4.602905 -2.570840
      ESP Fit Center **** is at   9.715620 -4.583894 -2.570840
      ESP Fit Center **** is at  10.128729 -4.489605 -2.570840
      ESP Fit Center **** is at  10.518362 -4.323068 -2.570840
      ESP Fit Center **** is at  10.871997 -4.089635 -2.570840
      ESP Fit Center **** is at  11.178268 -3.796810 -2.570840
      ESP Fit Center **** is at  11.427332 -3.454004 -2.570840
      ESP Fit Center **** is at  11.611182 -3.072234 -2.570840
      ESP Fit Center **** is at  11.723911 -2.663772 -2.570840
      ESP Fit Center **** is at  11.653617 -2.241746 -2.974933
      ESP Fit Center **** is at  11.612862 -1.814935 -2.974933
      ESP Fit Center **** is at   8.270724 -4.194861 -2.974933
      ESP Fit Center **** is at   8.660731 -4.372971 -2.974933
      ESP Fit Center **** is at   9.077398 -4.474053 -2.974933
      ESP Fit Center **** is at   9.505665 -4.494454 -2.974933
      ESP Fit Center **** is at   9.930053 -4.433436 -2.974933
      ESP Fit Center **** is at  10.335225 -4.293205 -2.974933
      ESP Fit Center **** is at  10.706535 -4.078829 -2.974933
      ESP Fit Center **** is at  11.030565 -3.798055 -2.974933
      ESP Fit Center **** is at  11.295602 -3.461033 -2.974933
      ESP Fit Center **** is at  11.492068 -3.079943 -2.974933
      ESP Fit Center **** is at  11.612862 -2.668557 -2.974933
      ESP Fit Center **** is at  11.476816 -2.241746 -3.354085
      ESP Fit Center **** is at  11.434270 -1.823355 -3.354085
      ESP Fit Center **** is at   8.483013 -4.107798 -3.354085
      ESP Fit Center **** is at   8.877383 -4.253857 -3.354085
      ESP Fit Center **** is at   9.293083 -4.317540 -3.354085
      ESP Fit Center **** is at   9.713092 -4.296239 -3.354085
      ESP Fit Center **** is at  10.120215 -4.190828 -3.354085
      ESP Fit Center **** is at  10.497786 -4.005620 -3.354085
      ESP Fit Center **** is at  10.830346 -3.748200 -3.354085
      ESP Fit Center **** is at  11.104280 -3.429105 -3.354085
      ESP Fit Center **** is at  11.308373 -3.061400 -3.354085
      ESP Fit Center **** is at  11.434270 -2.660137 -3.354085
      ESP Fit Center **** is at  11.236862 -2.241746 -3.696775
      ESP Fit Center **** is at  11.187304 -1.817757 -3.696775
      ESP Fit Center **** is at   8.479102 -3.833940 -3.696775
      ESP Fit Center **** is at   8.871065 -4.003016 -3.696775
      ESP Fit Center **** is at   9.291455 -4.077142 -3.696775
      ESP Fit Center **** is at   9.717608 -4.052322 -3.696775
      ESP Fit Center **** is at  10.126550 -3.929893 -3.696775
      ESP Fit Center **** is at  10.496235 -3.716455 -3.696775
      ESP Fit Center **** is at  10.806733 -3.423516 -3.696775
      ESP Fit Center **** is at  11.041305 -3.066867 -3.696775
      ESP Fit Center **** is at  11.187304 -2.665735 -3.696775
      ESP Fit Center **** is at  10.941045 -2.241746 -3.992591
      ESP Fit Center **** is at  10.883838 -1.825533 -3.992591
      ESP Fit Center **** is at   8.508716 -3.502078 -3.992591
      ESP Fit Center **** is at   8.881739 -3.695363 -3.992591
      ESP Fit Center **** is at   9.293078 -3.780840 -3.992591
      ESP Fit Center **** is at   9.712225 -3.752170 -3.992591
      ESP Fit Center **** is at  10.108093 -3.611478 -3.992591
      ESP Fit Center **** is at  10.451323 -3.369200 -3.992591
      ESP Fit Center **** is at  10.716459 -3.043303 -3.992591
      ESP Fit Center **** is at  10.883838 -2.657959 -3.992591
      ESP Fit Center **** is at  10.598355 -2.241746 -4.232546
      ESP Fit Center **** is at   8.798355 -3.280977 -4.232546
      ESP Fit Center **** is at   9.189977 -3.423516 -4.232546
      ESP Fit Center **** is at   9.606733 -3.423516 -4.232546
      ESP Fit Center **** is at   9.998355 -3.280977 -4.232546
      ESP Fit Center **** is at  10.317608 -3.013091 -4.232546
      ESP Fit Center **** is at  10.525986 -2.652170 -4.232546
      ESP Fit Center **** is at  10.219203 -2.241746 -4.409347
      ESP Fit Center **** is at   9.398355 -3.062595 -4.409347
      ESP Fit Center **** is at   9.808779 -2.952622 -4.409347
      ESP Fit Center **** is at  10.109230 -2.652170 -4.409347
      ESP Fit Center **** is at   9.606733 -2.602667 -4.517623
 Entering OneElI...
 OneElI was handed   670706331 working-precision words.
 Calculate electrostatic properties
    NBasis =   555  MinDer = 0  MaxDer = 0
    NGrid  = 14496  NMatD  =   1
 Requested accuracy = 0.1000D-05
 PrsmSu:  NPrtUS=   4 ThrOK=T IAlg=1 NPAlg=1 LenDen=           0.
 Prism:   IPart=     0 DynPar=F LinDyn=F Incr=         512.
 PRISM was handed   167134102 working-precision words and  5163 shell-pairs
 PRISM was handed   167134102 working-precision words and  5163 shell-pairs
 PRISM was handed   167134102 working-precision words and  5163 shell-pairs
 PRISM was handed   167134102 working-precision words and  5163 shell-pairs
 IPart=  2 NShTot=    18641856 NBatch=       17085 AvBLen=      1091.1
 IPart=  1 NShTot=    18772320 NBatch=       17235 AvBLen=      1089.2
 IPart=  3 NShTot=    18540384 NBatch=       16990 AvBLen=      1091.3
 IPart=  0 NShTot=    18888288 NBatch=       17417 AvBLen=      1084.5
 PrSmSu:  NxtVal=           2049.
   14433 points will be used for fitting atomic charges
 Fitting point charges to electrostatic potential
 Charges from ESP fit, RMS=   0.00142 RRMS=   0.08355:
 Charge=   0.00000 Dipole=     7.1700     0.4259     2.9365 Tot=     7.7597
              1
     1  C    0.398434
     2  C    0.323705
     3  C   -0.383346
     4  C    0.522871
     5  C    0.285021
     6  C   -0.397393
     7  C    0.557735
     8  C    0.258481
     9  C   -0.344993
    10  C    0.201043
    11  C   -0.438062
    12  C    0.591517
    13  C    0.249858
    14  C   -0.408331
    15  C    0.520199
    16  C    0.098222
    17  C   -0.285020
    18  C    0.537540
    19  C    0.278635
    20  C   -0.267666
    21  O   -0.142701
    22  O   -0.436624
    23  O   -0.294995
    24  O   -0.469735
    25  O   -0.356176
    26  O   -0.488082
    27  O   -0.508710
    28  O   -0.428323
    29  O   -0.377186
    30  O   -0.436969
    31  O   -0.264061
    32  O   -0.471635
    33  O   -0.334611
    34  H    0.129019
    35  H    0.028979
    36  H    0.089100
    37  H    0.114239
    38  H    0.130307
    39  H    0.036501
    40  H    0.122675
    41  H    0.142929
    42  H    0.108807
    43  H    0.060802
    44  H    0.097519
    45  H    0.077287
    46  H    0.118112
    47  H    0.053522
    48  H    0.140845
    49  H    0.125154
    50  H    0.115381
    51  H    0.015401
    52  H    0.109015
    53  H    0.127257
    54  H    0.127906
    55  H    0.081588
    56  H    0.088563
    57  H    0.084619
    58  H    0.106194
    59  H    0.011027
    60  H    0.028091
    61  H    0.083600
    62  H    0.083894
    63  H    0.073020
 Charges from ESP fit with hydrogens summed into heavy atoms:
              1
     1  C    0.398434
     2  C    0.352684
     3  C   -0.049700
     4  C    0.522871
     5  C    0.321523
     6  C   -0.022982
     7  C    0.557735
     8  C    0.319284
     9  C   -0.052074
    10  C    0.254565
    11  C   -0.056682
    12  C    0.591517
    13  C    0.265259
    14  C   -0.044153
    15  C    0.520199
    16  C    0.179810
    17  C   -0.005644
    18  C    0.537540
    19  C    0.317753
    20  C   -0.027152
    21  O   -0.142701
    22  O   -0.436624
    23  O   -0.294995
    24  O   -0.469735
    25  O   -0.356176
    26  O   -0.488082
    27  O   -0.379691
    28  O   -0.428323
    29  O   -0.377186
    30  O   -0.436969
    31  O   -0.264061
    32  O   -0.471635
    33  O   -0.334611
    34  H    0.000000
    35  H    0.000000
    36  H    0.000000
    37  H    0.000000
    38  H    0.000000
    39  H    0.000000
    40  H    0.000000
    41  H    0.000000
    42  H    0.000000
    43  H    0.000000
    44  H    0.000000
    45  H    0.000000
    46  H    0.000000
    47  H    0.000000
    48  H    0.000000
    49  H    0.000000
    50  H    0.000000
    51  H    0.000000
    52  H    0.000000
    53  H    0.000000
    54  H    0.000000
    55  H    0.000000
    56  H    0.000000
    57  H    0.000000
    58  H    0.000000
    59  H    0.000000
    60  H    0.000000
    61  H    0.000000
    62  H    0.000000
    63  H    0.000000
 -----------------------------------------------------------------

              Electrostatic Properties (Atomic Units)

 -----------------------------------------------------------------
    Center     Electric         -------- Electric Field --------
               Potential          X             Y             Z
 -----------------------------------------------------------------
    1 Atom    -14.589268
    2 Atom    -14.647837
    3 Atom    -14.728051
    4 Atom    -14.589892
    5 Atom    -14.654298
    6 Atom    -14.736418
    7 Atom    -14.616146
    8 Atom    -14.683728
    9 Atom    -14.747540
   10 Atom    -14.651867
   11 Atom    -14.740755
   12 Atom    -14.600457
   13 Atom    -14.647437
   14 Atom    -14.751208
   15 Atom    -14.584962
   16 Atom    -14.641562
   17 Atom    -14.735669
   18 Atom    -14.587808
   19 Atom    -14.670258
   20 Atom    -14.736219
   21 Atom    -22.256982
   22 Atom    -22.302807
   23 Atom    -22.240183
   24 Atom    -22.305131
   25 Atom    -22.274720
   26 Atom    -22.328325
   27 Atom    -22.336036
   28 Atom    -22.312407
   29 Atom    -22.274223
   30 Atom    -22.296646
   31 Atom    -22.252220
   32 Atom    -22.304154
   33 Atom    -22.247911
   34 Atom     -1.014547
   35 Atom     -1.086300
   36 Atom     -1.097893
   37 Atom     -1.089223
   38 Atom     -1.096141
   39 Atom     -1.091266
   40 Atom     -1.110840
   41 Atom     -1.107704
   42 Atom     -1.105124
   43 Atom     -1.111958
   44 Atom     -1.112315
   45 Atom     -1.117678
   46 Atom     -1.114681
   47 Atom     -1.073885
   48 Atom     -1.113022
   49 Atom     -1.111221
   50 Atom     -1.107367
   51 Atom     -1.071193
   52 Atom     -1.119424
   53 Atom     -1.121148
   54 Atom     -1.119166
   55 Atom     -1.072471
   56 Atom     -1.108975
   57 Atom     -1.100498
   58 Atom     -1.106665
   59 Atom     -1.094064
   60 Atom     -1.097953
   61 Atom     -1.108297
   62 Atom     -1.108227
   63 Atom     -1.101560
 -----------------------------------------------------------------
 Leave Link  602 at Wed Nov 22 14:30:53 2023, MaxMem=  671088640 cpu:       7.5

 Test job not archived.
 1\1\GINC-UBUNTU-20-04\SP\RB3LYP\6-31G(d)\C20H30O13\DECK\22-Nov-2023\0\
 \#B3LYP/6-31G* SCF=tight Test Pop=MK iop(6/33=2) iop(6/42=6) iop(6/50=
 1)\\\0,1\C,0,52.497,42.625,31.459\C,0,53.334,43.461,32.42\C,0,54.607,4
 3.972,31.737\C,0,52.82,45.171,33.989\C,0,51.855,46.336,34.233\C,0,50.7
 06,45.945,35.161\C,0,51.923,47.698,32.301\C,0,52.114,47.358,30.826\C,0
 ,53.593,47.278,30.429\C,0,52.243,42.729,29.096\C,0,53.204,43.514,28.20
 5\C,0,50.814,42.671,28.548\C,0,50.786,40.902,26.977\C,0,49.345,40.55,2
 6.615\C,0,51.754,40.58,25.835\C,0,51.659,38.622,24.493\C,0,51.999,38.6
 21,23.001\C,0,50.616,37.564,24.856\C,0,49.197,35.924,23.895\C,0,47.806
 ,36.398,23.515\O,0,52.201,43.383,30.371\O,0,52.134,41.489,31.631\O,0,5
 2.497,44.561,32.833\O,0,53.735,44.857,34.715\O,0,51.277,46.731,32.979\
 O,0,52.323,48.733,32.796\O,0,51.472,46.133,30.547\O,0,49.814,42.91,29.
 184\O,0,50.825,42.314,27.244\O,0,52.914,40.916,25.788\O,0,51.099,39.89
 3,24.877\O,0,50.292,37.24,25.974\O,0,50.101,37.044,23.724\H,0,51.989,4
 5.447,31.008\H,0,53.651,42.879,33.26\H,0,54.342,44.563,30.886\H,0,55.2
 01,43.14,31.422\H,0,55.166,44.569,32.426\H,0,52.415,47.127,34.687\H,0,
 50.14,45.154,34.715\H,0,50.071,46.792,35.319\H,0,51.101,45.615,36.099\
 H,0,51.679,48.147,30.249\H,0,54.07,46.498,30.985\H,0,54.071,48.211,30.
 643\H,0,53.671,47.069,29.382\H,0,52.603,41.723,29.152\H,0,52.871,44.52
 8,28.128\H,0,53.229,43.072,27.231\H,0,54.185,43.492,28.632\H,0,51.089,
 40.325,27.826\H,0,49.04,41.125,25.766\H,0,48.705,40.77,27.444\H,0,49.2
 8,39.508,26.381\H,0,52.577,38.417,25.003\H,0,51.114,38.822,22.433\H,0,
 52.39,37.664,22.725\H,0,52.73,39.376,22.801\H,0,49.493,35.115,23.26\H,
 0,49.214,35.578,24.907\H,0,47.81,36.74,22.501\H,0,47.514,37.2,24.16\H,
 0,47.113,35.589,23.616\\Version=EM64L-G09RevB.01\State=1-A\HF=-1758.07
 50732\RMSD=3.578e-09\Dipole=0.6018834,-2.2792742,-1.9409239\Quadrupole
 =-4.3494128,-1.2054578,5.5548705,6.696814,3.005704,15.1171985\PG=C01 [
 X(C20H30O13)]\\@


 LEARN FROM YESTERDAY,
 LIVE FOR TODAY,
 LOOK TO TOMORROW,
 REST THIS AFTERNOON.

           -- SNOOPY
 Job cpu time:  0 days  0 hours 17 minutes 15.2 seconds.
 File lengths (MBytes):  RWF=    171 Int=      0 D2E=      0 Chk=     12 Scr=      1
 Normal termination of Gaussian 09 at Wed Nov 22 14:30:53 2023.
  12 Scr=      1
 Normal termination of Gaussian 09 at Wed Nov 22 14:30:46 2023.
